                         Program Version 4.2.1 -  RELEASE  -
|  1> !B3LYP def2-SVP OPT FREQ
|  2> %pal
|  3> nprocs 16
|  4> end
|  5> * xyz 1 1
|  6>    C        1.33878        0.51508       -0.01708
|  7>    C        1.24526       -0.81240        0.09268
|  8>    N       -0.02415       -1.41966        0.11620
|  9>    C       -1.17237       -0.61743        0.00888
| 10>    N       -1.05625        0.71979       -0.10636
| 11>    C        0.13881        1.36406       -0.11760
| 12>    O       -2.19305       -1.27075        0.03788
| 13>    O        0.23534        2.57757       -0.20466
| 14>    H        2.15069       -1.41636        0.16463
| 15>    H       -0.21763       -1.98249        0.95584
| 16>    H       -1.89431        1.28315       -0.17534
| 17>    H        2.29444        1.03083       -0.03758
| 18>    H       -0.17622       -2.13392       -0.60893
| 19> *
| 20>
| 21>                          ****END OF INPUT****
 Total Charge           Charge          ....    1
 Multiplicity           Mult            ....    1
 Number of Electrons    NEL             ....   58
FINAL SINGLE POINT ENERGY      -414.567927107906
FINAL SINGLE POINT ENERGY      -414.585078962749
FINAL SINGLE POINT ENERGY      -414.590295346853
FINAL SINGLE POINT ENERGY      -414.591326982448
FINAL SINGLE POINT ENERGY      -414.591474336743
FINAL SINGLE POINT ENERGY      -414.591512148273
FINAL SINGLE POINT ENERGY      -414.591523859700
FINAL SINGLE POINT ENERGY      -414.591528251758
FINAL SINGLE POINT ENERGY      -414.591529078330
                    ***********************HURRAY********************

CARTESIAN COORDINATES (ANGSTROEM)
---------------------------------
  C      1.372793    0.529851   -0.015036
  C      1.302724   -0.794210    0.095800
  N     -0.008640   -1.463020    0.118827
  C     -1.330555   -0.610659    0.008144
  N     -1.080705    0.709657   -0.097399
  C      0.172593    1.398876   -0.122183
  O     -2.344242   -1.219751    0.031049
  O      0.201841    2.589695   -0.223265
  H      2.156844   -1.471062    0.176152
  H     -0.124198   -2.019917    0.984598
  H     -1.907129    1.310644   -0.173530
  H      2.338608    1.040183   -0.032851
  H     -0.080594   -2.162817   -0.641747

 Multiplicity           Mult            ....    1
 Number of Electrons    NEL             ....   58
 Basis Dimension        Dim             ....  137

ORBITAL ENERGIES
----------------

  NO   OCC          E(Eh)            E(eV)
   0   2.0000     -19.352254      -526.6016
   1   2.0000     -19.320477      -525.7369
   2   2.0000     -14.676594      -399.3704
   3   2.0000     -14.590614      -397.0308
   4   2.0000     -10.563206      -287.4394
   5   2.0000     -10.508210      -285.9429
   6   2.0000     -10.467663      -284.8396
   7   2.0000     -10.422161      -283.6014
   8   2.0000      -1.298774       -35.3414
   9   2.0000      -1.248723       -33.9795
  10   2.0000      -1.208744       -32.8916
  11   2.0000      -1.143207       -31.1082
  12   2.0000      -1.005164       -27.3519
  13   2.0000      -0.881084       -23.9755
  14   2.0000      -0.875273       -23.8174
  15   2.0000      -0.805897       -21.9296
  16   2.0000      -0.804396       -21.8887
  17   2.0000      -0.767500       -20.8847
  18   2.0000      -0.720543       -19.6070
  19   2.0000      -0.680355       -18.5134
  20   2.0000      -0.662064       -18.0157
  21   2.0000      -0.659941       -17.9579
  22   2.0000      -0.624212       -16.9857
  23   2.0000      -0.619472       -16.8567
  24   2.0000      -0.611674       -16.6445
  25   2.0000      -0.521965       -14.2034
  26   2.0000      -0.506832       -13.7916
  27   2.0000      -0.498599       -13.5676
  28   2.0000      -0.471553       -12.8316
  29   0.0000      -0.266667        -7.2564
  30   0.0000      -0.211456        -5.7540
  31   0.0000      -0.177600        -4.8327
  32   0.0000      -0.126527        -3.4430
  33   0.0000      -0.123977        -3.3736

MULLIKEN ATOMIC CHARGES
-----------------------
   0 C :   -0.016579
   1 C :    0.097028
   2 N :   -0.109193
   3 C :    0.205425
   4 N :   -0.116022
   5 C :    0.191372
   6 O :   -0.069051
   7 O :   -0.074637
   8 H :    0.107998
   9 H :    0.236131
  10 H :    0.210034
  11 H :    0.100587
  12 H :    0.236906
Sum of atomic charges:    1.0000000

LOEWDIN ATOMIC CHARGES
----------------------
   0 C :    0.006719
   1 C :    0.057807
   2 N :    0.192513
   3 C :    0.128353
   4 N :    0.023007
   5 C :    0.095829
   6 O :   -0.061404
   7 O :   -0.053865
   8 H :    0.068520
   9 H :    0.157018
  10 H :    0.140828
  11 H :    0.087522
  12 H :    0.157153

  Mayer bond orders larger than 0.100000
B(  0-C ,  1-C ) :   1.8538 B(  0-C ,  5-C ) :   0.9867 B(  0-C , 11-H ) :   0.9638
B(  1-C ,  2-N ) :   0.8992 B(  1-C ,  8-H ) :   0.9460 B(  2-N ,  3-C ) :   0.7362
B(  2-N ,  9-H ) :   0.8999 B(  2-N , 12-H ) :   0.8995 B(  3-C ,  4-N ) :   1.2258
B(  3-C ,  6-O ) :   2.2541 B(  4-N ,  5-C ) :   0.9639 B(  4-N , 10-H ) :   0.8840
B(  5-C ,  7-O ) :   2.2201

FINAL SINGLE POINT ENERGY      -414.591530171541

DIPOLE MOMENT
-------------
                                X             Y             Z
Electronic contribution:     -2.24470       1.48861      -0.18849
Nuclear contribution   :      3.40775      -3.68208       0.41021
                        -----------------------------------------
Total Dipole Moment    :      1.16304      -2.19347       0.22172
                        -----------------------------------------
Magnitude (a.u.)       :      2.49262
Magnitude (Debye)      :      6.33572

VIBRATIONAL FREQUENCIES
-----------------------

Scaling factor for frequencies =  1.000000000  (already applied!)

   0:         0.00 cm**-1
   1:         0.00 cm**-1
   2:         0.00 cm**-1
   3:         0.00 cm**-1
   4:         0.00 cm**-1
   5:         0.00 cm**-1
   6:        70.18 cm**-1
   7:       132.87 cm**-1
   8:       309.76 cm**-1
   9:       387.71 cm**-1
  10:       451.21 cm**-1
  11:       510.36 cm**-1
  12:       529.57 cm**-1
  13:       557.09 cm**-1
  14:       629.48 cm**-1
  15:       670.08 cm**-1
  16:       746.47 cm**-1
  17:       815.67 cm**-1
  18:       817.58 cm**-1
  19:       931.31 cm**-1
  20:       940.04 cm**-1
  21:       964.67 cm**-1
  22:       998.08 cm**-1
  23:      1169.86 cm**-1
  24:      1227.17 cm**-1
  25:      1252.52 cm**-1
  26:      1302.23 cm**-1
  27:      1354.79 cm**-1
  28:      1382.40 cm**-1
  29:      1441.26 cm**-1
  30:      1572.45 cm**-1
  31:      1739.61 cm**-1
  32:      1878.06 cm**-1
  33:      1988.72 cm**-1
  34:      3216.23 cm**-1
  35:      3230.47 cm**-1
  36:      3346.51 cm**-1
  37:      3381.24 cm**-1
  38:      3516.69 cm**-1

IR SPECTRUM
-----------

 Mode    freq (cm**-1)   T**2         TX         TY         TZ
-------------------------------------------------------------------
   6:        70.18   13.755841  (  0.106556  -0.327052  -3.692902)
   7:       132.87    3.443512  ( -0.054465   0.153246   1.848529)
   8:       309.76    2.877255  ( -0.043042   0.147242   1.689296)
   9:       387.71   30.566874  (  4.183762  -3.587402   0.439947)
  10:       451.21   17.895485  ( -0.446755   4.190278  -0.370760)
  11:       510.36   31.720567  (  5.088409   2.413684  -0.052873)
  12:       529.57    1.961317  (  0.866650  -1.091122   0.140319)
  13:       557.09   18.504018  (  0.141880  -0.362751  -4.283958)
  14:       629.48   20.395770  ( -2.717391   3.586041  -0.389697)
  15:       670.08   23.774752  (  0.125442  -0.420775  -4.856127)
  16:       746.47   41.307581  (  0.221893  -0.569442  -6.397975)
  17:       815.67   18.262935  (  3.963839  -1.596899  -0.028750)
  18:       817.58  109.810308  ( -0.196035   0.872753  10.440794)
  19:       931.31    2.473875  ( -1.291453  -0.897510   0.022362)
  20:       940.04    0.077173  (  0.019579  -0.000421  -0.277110)
  21:       964.67    5.396176  (  2.091175  -0.999637   0.154565)
  22:       998.08    0.224259  (  0.008139  -0.027977  -0.472663)
  23:      1169.86   51.655784  ( -4.436059  -5.642848   0.368003)
  24:      1227.17   74.572527  (  0.190767   8.602675  -0.728091)
  25:      1252.52    0.934397  ( -0.018170   0.080644   0.963101)
  26:      1302.23  281.905740  ( 15.956907  -5.147956   0.883968)
  27:      1354.79   14.174622  (  3.761968  -0.104524   0.106267)
  28:      1382.40   24.751488  ( -4.352696  -2.408003   0.083922)
  29:      1441.26   48.332580  ( -4.565052  -5.233125   0.327533)
  30:      1572.45   62.044065  (  0.363376   7.838596  -0.684422)
  31:      1739.61    9.096845  ( -2.741800   1.243334  -0.183024)
  32:      1878.06  308.640979  ( -4.122968 -17.024797   1.341040)
  33:      1988.72  501.128669  (-18.340506 -12.822769   0.575414)
  34:      3216.23   18.350452  ( -0.267311  -4.260055   0.361839)
  35:      3230.47   30.897095  (  5.516611   0.674408   0.096278)
  36:      3346.51  150.528115  ( -0.490731  12.228281  -0.869738)
  37:      3381.24  141.060792  (  0.305399  -0.824933 -11.844282)
  38:      3516.69  166.940478  (  9.733261  -8.437178   1.009026)

--------------------------
THERMOCHEMISTRY AT 298.15K
--------------------------

Temperature         ... 298.15 K
Pressure            ... 1.00 atm
Total Mass          ... 113.10 AMU

Throughout the following assumptions are being made:
  (1) The electronic state is orbitally nondegenerate
  (2) There are no thermally accessible electronically excited states
  (3) Hindered rotations indicated by low frequency modes are not
      treated as such but are treated as vibrations and this may
      cause some error
  (4) All equations used are the standard statistical mechanics
      equations for an ideal gas
  (5) All vibrations are strictly harmonic

freq.      70.18  E(vib)   ...       0.50
freq.     132.87  E(vib)   ...       0.42
freq.     309.76  E(vib)   ...       0.26
freq.     387.71  E(vib)   ...       0.20
freq.     451.21  E(vib)   ...       0.16
freq.     510.36  E(vib)   ...       0.14
freq.     529.57  E(vib)   ...       0.13
freq.     557.09  E(vib)   ...       0.12
freq.     629.48  E(vib)   ...       0.09
freq.     670.08  E(vib)   ...       0.08
freq.     746.47  E(vib)   ...       0.06
freq.     815.67  E(vib)   ...       0.05
freq.     817.58  E(vib)   ...       0.05
freq.     931.31  E(vib)   ...       0.03
freq.     940.04  E(vib)   ...       0.03
freq.     964.67  E(vib)   ...       0.03
freq.     998.08  E(vib)   ...       0.02
freq.    1169.86  E(vib)   ...       0.01
freq.    1227.17  E(vib)   ...       0.01
freq.    1252.52  E(vib)   ...       0.01
freq.    1302.23  E(vib)   ...       0.01
freq.    1354.79  E(vib)   ...       0.01
freq.    1382.40  E(vib)   ...       0.01
freq.    1441.26  E(vib)   ...       0.00
freq.    1572.45  E(vib)   ...       0.00
freq.    1739.61  E(vib)   ...       0.00
freq.    1878.06  E(vib)   ...       0.00
freq.    1988.72  E(vib)   ...       0.00
freq.    3216.23  E(vib)   ...       0.00
freq.    3230.47  E(vib)   ...       0.00
freq.    3346.51  E(vib)   ...       0.00
freq.    3381.24  E(vib)   ...       0.00
freq.    3516.69  E(vib)   ...       0.00

------------
INNER ENERGY
------------

The inner energy is: U= E(el) + E(ZPE) + E(vib) + E(rot) + E(trans)
    E(el)   - is the total energy from the electronic structure calculation
              = E(kin-el) + E(nuc-el) + E(el-el) + E(nuc-nuc)
    E(ZPE)  - the the zero temperature vibrational energy from the frequency calculation
    E(vib)  - the the finite temperature correction to E(ZPE) due to population
              of excited vibrational states
    E(rot)  - is the rotational thermal energy
    E(trans)- is the translational thermal energy

Summary of contributions to the inner energy U:
Electronic energy                ...   -414.59153017 Eh
Zero point energy                ...      0.09901449 Eh      62.13 kcal/mol
Thermal vibrational correction   ...      0.00383942 Eh       2.41 kcal/mol
Thermal rotational correction    ...      0.00141627 Eh       0.89 kcal/mol
Thermal translational correction ...      0.00141627 Eh       0.89 kcal/mol
-----------------------------------------------------------------------
Total thermal energy                   -414.48584372 Eh

Summary of corrections to the electronic energy:
(perhaps to be used in another calculation)
Total thermal correction                  0.00667196 Eh       4.19 kcal/mol
Non-thermal (ZPE) correction              0.09901449 Eh      62.13 kcal/mol
-----------------------------------------------------------------------
Total correction                          0.10568645 Eh      66.32 kcal/mol

--------
ENTHALPY
--------

The enthalpy is H = U + kB*T
                kB is Boltzmann's constant
Total free energy                 ...   -414.48584372 Eh
Thermal Enthalpy correction       ...      0.00094421 Eh       0.59 kcal/mol
-----------------------------------------------------------------------
Total Enthalpy                    ...   -414.48489951 Eh

Note: Only C1 symmetry has been detected, increase convergence thresholds
      if your molecule has a higher symmetry. Symmetry factor of 1.0 is
      used for the rotational entropy correction.

Note: Rotational entropy computed according to Herzberg
Infrared and Raman Spectra, Chapter V,1, Van Nostrand Reinhold, 1945
Point Group:  C1, Symmetry Number:   1
Rotational constants in cm-1:     0.118626     0.065538     0.042502

Vibrational entropy computed according to the QRRHO of S. Grimme
Chem.Eur.J. 2012 18 9955

-------
ENTROPY
-------

The entropy contributions are T*S = T*(S(el)+S(vib)+S(rot)+S(trans))
     S(el)   - electronic entropy
     S(vib)  - vibrational entropy
     S(rot)  - rotational entropy
     S(trans)- translational entropy
The entropies will be listed as mutliplied by the temperature to get
units of energy

Electronic entropy                ...      0.00000000 Eh      0.00 kcal/mol
Vibrational entropy               ...      0.00626780 Eh      3.93 kcal/mol
Rotational entropy                ...      0.01329467 Eh      8.34 kcal/mol
Translational entropy             ...      0.01904554 Eh     11.95 kcal/mol
-----------------------------------------------------------------------
Final entropy term                ...      0.03860800 Eh     24.23 kcal/mol

In case the symmetry of your molecule has not been determined correctly
or in case you have a reason to use a different symmetry number we print
out the resulting rotational entropy values for sn=1,12 :
 --------------------------------------------------------
|  sn= 1 | S(rot)=       0.01329467 Eh      8.34 kcal/mol|
|  sn= 2 | S(rot)=       0.01264021 Eh      7.93 kcal/mol|
|  sn= 3 | S(rot)=       0.01225738 Eh      7.69 kcal/mol|
|  sn= 4 | S(rot)=       0.01198575 Eh      7.52 kcal/mol|
|  sn= 5 | S(rot)=       0.01177507 Eh      7.39 kcal/mol|
|  sn= 6 | S(rot)=       0.01160292 Eh      7.28 kcal/mol|
|  sn= 7 | S(rot)=       0.01145738 Eh      7.19 kcal/mol|
|  sn= 8 | S(rot)=       0.01133130 Eh      7.11 kcal/mol|
|  sn= 9 | S(rot)=       0.01122009 Eh      7.04 kcal/mol|
|  sn=10 | S(rot)=       0.01112061 Eh      6.98 kcal/mol|
|  sn=11 | S(rot)=       0.01103062 Eh      6.92 kcal/mol|
|  sn=12 | S(rot)=       0.01094847 Eh      6.87 kcal/mol|
 --------------------------------------------------------

-------------------
GIBBS FREE ENERGY
-------------------

The Gibbs free energy is G = H - T*S

Total enthalpy                    ...   -414.48489951 Eh
Total entropy correction          ...     -0.03860800 Eh    -24.23 kcal/mol
-----------------------------------------------------------------------
Final Gibbs free energy         ...   -414.52350752 Eh

For completeness - the Gibbs free energy minus the electronic energy
G-E(el)                           ...      0.06802265 Eh     42.68 kcal/mol

                             ****ORCA TERMINATED NORMALLY****
TOTAL RUN TIME: 0 days 0 hours 2 minutes 1 seconds 729 msec
