                         Program Version 6.1.0-f.0  -   RELEASE   -
|  1> !B3LYP def2-SVP OPT FREQ pal16
|  2> * xyz 1 1
|  3>    C        1.33878        0.51508       -0.01708
|  4>    C        1.24526       -0.81240        0.09268
|  5>    N       -0.02415       -1.41966        0.11620
|  6>    C       -1.17237       -0.61743        0.00888
|  7>    N       -1.05625        0.71979       -0.10636
|  8>    C        0.13881        1.36406       -0.11760
|  9>    O       -2.19305       -1.27075        0.03788
| 10>    O        0.23534        2.57757       -0.20466
| 11>    H        2.15069       -1.41636        0.16463
| 12>    H       -0.21763       -1.98249        0.95584
| 13>    H       -1.89431        1.28315       -0.17534
| 14>    H        2.29444        1.03083       -0.03758
| 15>    H       -0.17622       -2.13392       -0.60893
| 16> *
| 17>
| 18>                          ****END OF INPUT****
 Total Charge           Charge          ....    1
 Multiplicity           Mult            ....    1
 Number of Electrons    NEL             ....   58
FINAL SINGLE POINT ENERGY      -414.568340822527
FINAL SINGLE POINT ENERGY      -414.585513181607
FINAL SINGLE POINT ENERGY      -414.590740236314
FINAL SINGLE POINT ENERGY      -414.591765426544
FINAL SINGLE POINT ENERGY      -414.591912122145
FINAL SINGLE POINT ENERGY      -414.591949000681
FINAL SINGLE POINT ENERGY      -414.591961536980
FINAL SINGLE POINT ENERGY      -414.591956021006
                    ***********************HURRAY********************

CARTESIAN COORDINATES (ANGSTROEM)
---------------------------------
  C      1.372882    0.530028   -0.015418
  C      1.302616   -0.794079    0.096298
  N     -0.008795   -1.463168    0.118308
  C     -1.330588   -0.610661    0.008435
  N     -1.080734    0.709650   -0.098694
  C      0.172364    1.398702   -0.123027
  O     -2.344445   -1.219175    0.033221
  O      0.201931    2.589589   -0.223225
  H      2.156508   -1.471242    0.177753
  H     -0.124058   -2.020895    0.983372
  H     -1.907349    1.310516   -0.172981
  H      2.338784    1.040156   -0.032665
  H     -0.079777   -2.161952   -0.642815

 Multiplicity           Mult            ....    1
 Number of Electrons    NEL             ....   58
 Basis Dimension        Dim             ....  137

ORBITAL ENERGIES
----------------

  NO   OCC          E(Eh)            E(eV)
   0   2.0000     -19.352174      -526.5994
   1   2.0000     -19.320683      -525.7425
   2   2.0000     -14.676381      -399.3646
   3   2.0000     -14.590642      -397.0316
   4   2.0000     -10.563283      -287.4415
   5   2.0000     -10.508333      -285.9463
   6   2.0000     -10.467784      -284.8429
   7   2.0000     -10.422248      -283.6038
   8   2.0000      -1.298857       -35.3437
   9   2.0000      -1.248687       -33.9785
  10   2.0000      -1.208761       -32.8920
  11   2.0000      -1.143233       -31.1090
  12   2.0000      -1.005140       -27.3512
  13   2.0000      -0.881085       -23.9755
  14   2.0000      -0.875270       -23.8173
  15   2.0000      -0.805931       -21.9305
  16   2.0000      -0.804398       -21.8888
  17   2.0000      -0.767508       -20.8850
  18   2.0000      -0.720523       -19.6064
  19   2.0000      -0.680364       -18.5136
  20   2.0000      -0.662159       -18.0182
  21   2.0000      -0.660003       -17.9596
  22   2.0000      -0.624250       -16.9867
  23   2.0000      -0.619478       -16.8569
  24   2.0000      -0.611703       -16.6453
  25   2.0000      -0.521884       -14.2012
  26   2.0000      -0.506890       -13.7932
  27   2.0000      -0.498657       -13.5691
  28   2.0000      -0.471654       -12.8344
  29   0.0000      -0.266689        -7.2570
  30   0.0000      -0.211498        -5.7551
  31   0.0000      -0.177967        -4.8427
  32   0.0000      -0.126454        -3.4410
  33   0.0000      -0.123768        -3.3679

MULLIKEN ATOMIC CHARGES
-----------------------
   0 C :   -0.016133
   1 C :    0.094612
   2 N :   -0.104703
   3 C :    0.204044
   4 N :   -0.114589
   5 C :    0.189495
   6 O :   -0.067645
   7 O :   -0.073973
   8 H :    0.107472
   9 H :    0.235526
  10 H :    0.209464
  11 H :    0.100964
  12 H :    0.235465
Sum of atomic charges:    1.0000000

LOEWDIN ATOMIC CHARGES
----------------------
   0 C :    0.006668
   1 C :    0.057690
   2 N :    0.193342
   3 C :    0.128234
   4 N :    0.022955
   5 C :    0.095483
   6 O :   -0.060706
   7 O :   -0.053993
   8 H :    0.068411
   9 H :    0.156773
  10 H :    0.140667
  11 H :    0.087727
  12 H :    0.156748

  Mayer bond orders larger than 0.100000
B(  0-C ,  1-C ) :   1.8551 B(  0-C ,  5-C ) :   0.9870 B(  0-C , 11-H ) :   0.9630
B(  1-C ,  2-N ) :   0.9000 B(  1-C ,  8-H ) :   0.9452 B(  2-N ,  3-C ) :   0.7377
B(  2-N ,  9-H ) :   0.8997 B(  2-N , 12-H ) :   0.8998 B(  3-C ,  4-N ) :   1.2244
B(  3-C ,  6-O ) :   2.2549 B(  4-N ,  5-C ) :   0.9647 B(  4-N , 10-H ) :   0.8838
B(  5-C ,  7-O ) :   2.2210

FINAL SINGLE POINT ENERGY      -414.591949061215

DIPOLE MOMENT
-------------

Method             : SCF
Type of density    : Electron Density
Multiplicity       :   1
Irrep              :   0
Energy             :  -414.5919490612150753 Eh
Basis              : AO
                                X                 Y                 Z
Electronic contribution:     -2.246726118       1.485871758      -0.189835536
Nuclear contribution   :      3.408585537      -3.682768009       0.410069551
                        -----------------------------------------
Total Dipole Moment    :      1.161859419      -2.196896251       0.220234015
                        -----------------------------------------
Magnitude (a.u.)       :      2.494949592
Magnitude (Debye)      :      6.341657884

VIBRATIONAL FREQUENCIES
-----------------------

Scaling factor for frequencies =  1.000000000  (already applied!)

     0:       0.00 cm**-1
     1:       0.00 cm**-1
     2:       0.00 cm**-1
     3:       0.00 cm**-1
     4:       0.00 cm**-1
     5:       0.00 cm**-1
     6:      69.22 cm**-1
     7:     132.08 cm**-1
     8:     309.99 cm**-1
     9:     387.94 cm**-1
    10:     451.27 cm**-1
    11:     510.59 cm**-1
    12:     529.78 cm**-1
    13:     557.06 cm**-1
    14:     629.83 cm**-1
    15:     669.90 cm**-1
    16:     745.76 cm**-1
    17:     815.79 cm**-1
    18:     817.30 cm**-1
    19:     931.39 cm**-1
    20:     939.02 cm**-1
    21:     964.78 cm**-1
    22:     997.99 cm**-1
    23:    1170.27 cm**-1
    24:    1227.60 cm**-1
    25:    1253.51 cm**-1
    26:    1302.82 cm**-1
    27:    1355.42 cm**-1
    28:    1382.82 cm**-1
    29:    1441.19 cm**-1
    30:    1572.90 cm**-1
    31:    1739.77 cm**-1
    32:    1877.27 cm**-1
    33:    1988.18 cm**-1
    34:    3215.05 cm**-1
    35:    3230.03 cm**-1
    36:    3347.72 cm**-1
    37:    3382.25 cm**-1
    38:    3515.46 cm**-1

IR SPECTRUM
-----------

 Mode   freq       eps      Int      T**2         TX        TY        TZ
       cm**-1   L/(mol*cm) km/mol    a.u.
----------------------------------------------------------------------------
  6:     69.22   0.002730   13.80  0.012306  ( 0.003143 -0.009719 -0.110461)
  7:    132.08   0.000668    3.37  0.001577  ( 0.001201 -0.003350 -0.039556)
  8:    309.99   0.000565    2.85  0.000569  ( 0.000579 -0.001956 -0.023758)
  9:    387.94   0.006056   30.61  0.004872  (-0.052818  0.045306 -0.005408)
 10:    451.27   0.003556   17.97  0.002459  ( 0.004907 -0.049153  0.004322)
 11:    510.59   0.006248   31.57  0.003819  ( 0.055942  0.026239 -0.000769)
 12:    529.78   0.000381    1.92  0.000224  ( 0.009062 -0.011835  0.001421)
 13:    557.06   0.003670   18.55  0.002056  (-0.001185  0.003913  0.045157)
 14:    629.83   0.003989   20.16  0.001977  ( 0.026790 -0.035284  0.003725)
 15:    669.90   0.004765   24.08  0.002220  ( 0.001264 -0.004100 -0.046919)
 16:    745.76   0.008253   41.71  0.003454  (-0.001646  0.004959  0.058534)
 17:    815.79   0.003632   18.35  0.001389  (-0.034448  0.014096  0.001968)
 18:    817.30   0.021547  108.89  0.008227  ( 0.000889 -0.007103 -0.090421)
 19:    931.39   0.000484    2.45  0.000162  (-0.010384 -0.007365  0.000267)
 20:    939.02   0.000026    0.13  0.000009  (-0.000107  0.000199  0.002952)
 21:    964.78   0.001054    5.32  0.000341  ( 0.016606 -0.007970  0.001218)
 22:    997.99   0.000045    0.23  0.000014  ( 0.000106 -0.000270 -0.003754)
 23:   1170.27   0.010130   51.19  0.002701  ( 0.032101  0.040790 -0.002636)
 24:   1227.60   0.014819   74.89  0.003767  ( 0.001086  0.061147 -0.005195)
 25:   1253.51   0.000186    0.94  0.000046  (-0.000024  0.000598  0.006773)
 26:   1302.82   0.055511  280.53  0.013297  ( 0.109633 -0.035228  0.006030)
 27:   1355.42   0.002922   14.77  0.000673  ( 0.025907 -0.000966  0.000793)
 28:   1382.82   0.004845   24.49  0.001093  ( 0.028941  0.015987 -0.000555)
 29:   1441.19   0.009578   48.40  0.002074  (-0.029969 -0.034220  0.002159)
 30:   1572.90   0.012267   61.99  0.002434  (-0.002289 -0.049101  0.004193)
 31:   1739.77   0.001786    9.03  0.000320  (-0.016300  0.007314 -0.001096)
 32:   1877.27   0.061051  308.53  0.010149  (-0.023653 -0.097622  0.007694)
 33:   1988.18   0.099166  501.15  0.015565  ( 0.102173  0.071515 -0.003367)
 34:   3215.05   0.003488   17.62  0.000339  (-0.000401  0.018325 -0.001598)
 35:   3230.03   0.006309   31.88  0.000610  ( 0.024304  0.004335  0.000286)
 36:   3347.72   0.029815  150.68  0.002779  (-0.002160  0.052451 -0.004851)
 37:   3382.25   0.027918  141.09  0.002576  ( 0.001384 -0.004629 -0.050523)
 38:   3515.46   0.033044  166.99  0.002933  ( 0.040844 -0.035323  0.004168)

--------------------------
THERMOCHEMISTRY AT 298.15K
--------------------------

Temperature         ...   298.15 K
Pressure            ...     1.00 atm
Total Mass          ...   113.10 AMU
Quasi RRHO          ...     True
Cut-Off Frequency   ...     1.00 cm^-1

Throughout the following assumptions are being made:
  (1) The electronic state is orbitally nondegenerate
  (2) There are no thermally accessible electronically excited states
  (3) Hindered rotations indicated by low frequency modes are not
      treated as such but are treated as vibrations and this may
      cause some error
  (4) All equations used are the standard statistical mechanics
      equations for an ideal gas
  (5) All vibrations are strictly harmonic

freq.      69.22  E(vib)   ...       0.50
freq.     132.08  E(vib)   ...       0.42
freq.     309.99  E(vib)   ...       0.26
freq.     387.94  E(vib)   ...       0.20
freq.     451.27  E(vib)   ...       0.16
freq.     510.59  E(vib)   ...       0.14
freq.     529.78  E(vib)   ...       0.13
freq.     557.06  E(vib)   ...       0.12
freq.     629.83  E(vib)   ...       0.09
freq.     669.90  E(vib)   ...       0.08
freq.     745.76  E(vib)   ...       0.06
freq.     815.79  E(vib)   ...       0.05
freq.     817.30  E(vib)   ...       0.05
freq.     931.39  E(vib)   ...       0.03
freq.     939.02  E(vib)   ...       0.03
freq.     964.78  E(vib)   ...       0.03
freq.     997.99  E(vib)   ...       0.02
freq.    1170.27  E(vib)   ...       0.01
freq.    1227.60  E(vib)   ...       0.01
freq.    1253.51  E(vib)   ...       0.01
freq.    1302.82  E(vib)   ...       0.01
freq.    1355.42  E(vib)   ...       0.01
freq.    1382.82  E(vib)   ...       0.01
freq.    1441.19  E(vib)   ...       0.00
freq.    1572.90  E(vib)   ...       0.00
freq.    1739.77  E(vib)   ...       0.00
freq.    1877.27  E(vib)   ...       0.00
freq.    1988.18  E(vib)   ...       0.00
freq.    3215.05  E(vib)   ...       0.00
freq.    3230.03  E(vib)   ...       0.00
freq.    3347.72  E(vib)   ...       0.00
freq.    3382.25  E(vib)   ...       0.00
freq.    3515.46  E(vib)   ...       0.00

------------
INNER ENERGY
------------

The inner energy is: U= E(el) + E(ZPE) + E(vib) + E(rot) + E(trans)
    E(el)   - is the total energy from the electronic structure calculation
              = E(kin-el) + E(nuc-el) + E(el-el) + E(nuc-nuc)
    E(ZPE)  - the the zero temperature vibrational energy from the frequency calculation
    E(vib)  - the the finite temperature correction to E(ZPE) due to population
              of excited vibrational states
    E(rot)  - is the rotational thermal energy
    E(trans)- is the translational thermal energy

Summary of contributions to the inner energy U:
Electronic energy                ...   -414.59194906 Eh
Zero point energy                ...      0.09901363 Eh      62.13 kcal/mol
Thermal vibrational correction   ...      0.00384211 Eh       2.41 kcal/mol
Thermal rotational correction    ...      0.00141627 Eh       0.89 kcal/mol
Thermal translational correction ...      0.00141627 Eh       0.89 kcal/mol
-----------------------------------------------------------------------
Total thermal energy                   -414.48626077 Eh

Summary of corrections to the electronic energy:
(perhaps to be used in another calculation)
Total thermal correction                  0.00667465 Eh       4.19 kcal/mol
Non-thermal (ZPE) correction              0.09901363 Eh      62.13 kcal/mol
-----------------------------------------------------------------------
Total correction                          0.10568829 Eh      66.32 kcal/mol

--------
ENTHALPY
--------

The enthalpy is H = U + kB*T
                kB is Boltzmann's constant
Total thermal energy              ...   -414.48626077 Eh
Thermal Enthalpy correction       ...      0.00094421 Eh       0.59 kcal/mol
-----------------------------------------------------------------------
Total Enthalpy                    ...   -414.48531657 Eh

Note: Only C1 symmetry has been detected, increase convergence thresholds
      if your molecule has a higher symmetry. Symmetry factor of 1.0 is
      used for the rotational entropy correction.

Note: Rotational entropy computed according to Herzberg
Infrared and Raman Spectra, Chapter V,1, Van Nostrand Reinhold, 1945
Point Group:  C1, Symmetry Number:   1
Rotational constants in cm-1:     0.118624     0.065543     0.042503

Vibrational entropy computed according to the QRRHO of S. Grimme
Chem.Eur.J. 2012 18 9955 using a reference frequency of 100.0 cm-1

-------
ENTROPY
-------

The entropy contributions are T*S = T*(S(el)+S(vib)+S(rot)+S(trans))
     S(el)   - electronic entropy
     S(vib)  - vibrational entropy
     S(rot)  - rotational entropy
     S(trans)- translational entropy
The entropies will be listed as multiplied by the temperature to get
units of energy

Electronic entropy                ...      0.00000000 Eh      0.00 kcal/mol
Vibrational entropy               ...      0.00627409 Eh      3.94 kcal/mol
Rotational entropy                ...      0.01329463 Eh      8.34 kcal/mol
Translational entropy             ...      0.01904554 Eh     11.95 kcal/mol
-----------------------------------------------------------------------
Final entropy term                ...      0.03861426 Eh     24.23 kcal/mol

In case the symmetry of your molecule has not been determined correctly
or in case you have a reason to use a different symmetry number we print
out the resulting rotational entropy values for sn=1,12:

 non-linear molecules -----------------------------------
|  sn= 1 | S(rot)=       0.01329463 Eh      8.34 kcal/mol|
|  sn= 2 | S(rot)=       0.01264018 Eh      7.93 kcal/mol|
|  sn= 3 | S(rot)=       0.01225734 Eh      7.69 kcal/mol|
|  sn= 4 | S(rot)=       0.01198572 Eh      7.52 kcal/mol|
|  sn= 5 | S(rot)=       0.01177503 Eh      7.39 kcal/mol|
|  sn= 6 | S(rot)=       0.01160289 Eh      7.28 kcal/mol|
|  sn= 7 | S(rot)=       0.01145734 Eh      7.19 kcal/mol|
|  sn= 8 | S(rot)=       0.01133126 Eh      7.11 kcal/mol|
|  sn= 9 | S(rot)=       0.01122006 Eh      7.04 kcal/mol|
|  sn=10 | S(rot)=       0.01112058 Eh      6.98 kcal/mol|
|  sn=11 | S(rot)=       0.01103059 Eh      6.92 kcal/mol|
|  sn=12 | S(rot)=       0.01094843 Eh      6.87 kcal/mol|
 linear molecules ---------------------------------------
|  Dinfh | S(rot)=       0.00830770 Eh      5.21 kcal/mol|
|  Cinfv | S(rot)=       0.00896216 Eh      5.62 kcal/mol|
 --------------------------------------------------------

-------------------
GIBBS FREE ENERGY
-------------------

The Gibbs free energy is G = H - T*S

Total enthalpy                    ...   -414.48531657 Eh
Total entropy correction          ...     -0.03861426 Eh    -24.23 kcal/mol
-----------------------------------------------------------------------

                             ****ORCA TERMINATED NORMALLY****
TOTAL RUN TIME: 0 days 0 hours 0 minutes 59 seconds 842 msec
