                         Program Version 4.2.1 -  RELEASE  -
|  1> !B3LYP def2-SVP OPT FREQ CPCM(WATER)
|  2> * xyz -1 1
|  3>    C        1.33878        0.51508       -0.01708
|  4>    C        1.24526       -0.81240        0.09268
|  5>    N       -0.02415       -1.41966        0.11620
|  6>    C       -1.17237       -0.61743        0.00888
|  7>    N       -1.05625        0.71979       -0.10636
|  8>    C        0.13881        1.36406       -0.11760
|  9>    O       -2.19305       -1.27075        0.03788
| 10>    O        0.23534        2.57757       -0.20466
| 11>    H        2.15069       -1.41636        0.16463
| 12>    H       -1.89431        1.28315       -0.17534
| 13>    H        2.29444        1.03083       -0.03758
| 14> *
| 15>
| 16>
| 17>
| 18>                          ****END OF INPUT****
 Total Charge           Charge          ....   -1
 Multiplicity           Mult            ....    1
 Number of Electrons    NEL             ....   58
FINAL SINGLE POINT ENERGY      -413.815615833809
FINAL SINGLE POINT ENERGY      -413.836936227598
FINAL SINGLE POINT ENERGY      -413.841799816333
FINAL SINGLE POINT ENERGY      -413.842006259382
FINAL SINGLE POINT ENERGY      -413.842003405465
FINAL SINGLE POINT ENERGY      -413.842013229751
FINAL SINGLE POINT ENERGY      -413.842020484721
FINAL SINGLE POINT ENERGY      -413.842074687321
                    ***********************HURRAY********************

CARTESIAN COORDINATES (ANGSTROEM)
---------------------------------
  C      1.356566    0.572472   -0.019574
  C      1.179217   -0.796685    0.088575
  N      0.008210   -1.454494    0.110838
  C     -1.131376   -0.714764    0.018532
  N     -0.995238    0.677642   -0.092617
  C      0.194158    1.409660   -0.120689
  O     -2.273001   -1.200862    0.028059
  O      0.161758    2.645985   -0.224814
  H      2.075560   -1.430341    0.165515
  H     -1.858608    1.212888   -0.161920
  H      2.345944    1.032379   -0.030255

 Multiplicity           Mult            ....    1
 Number of Electrons    NEL             ....   58
 Basis Dimension        Dim             ....  127

ORBITAL ENERGIES
----------------

  NO   OCC          E(Eh)            E(eV)
   0   2.0000     -19.075151      -519.0613
   1   2.0000     -19.068382      -518.8771
   2   2.0000     -14.339529      -390.1984
   3   2.0000     -14.277716      -388.5164
   4   2.0000     -10.278679      -279.6971
   5   2.0000     -10.264984      -279.3244
   6   2.0000     -10.209047      -277.8023
   7   2.0000     -10.152472      -276.2628
   8   2.0000      -1.011123       -27.5141
   9   2.0000      -0.985803       -26.8251
  10   2.0000      -0.900701       -24.5093
  11   2.0000      -0.851183       -23.1619
  12   2.0000      -0.728167       -19.8144
  13   2.0000      -0.624806       -17.0018
  14   2.0000      -0.596715       -16.2374
  15   2.0000      -0.514396       -13.9974
  16   2.0000      -0.493470       -13.4280
  17   2.0000      -0.442724       -12.0471
  18   2.0000      -0.432345       -11.7647
  19   2.0000      -0.410395       -11.1674
  20   2.0000      -0.396590       -10.7918
  21   2.0000      -0.372895       -10.1470
  22   2.0000      -0.365898        -9.9566
  23   2.0000      -0.306402        -8.3376
  24   2.0000      -0.259198        -7.0531
  25   2.0000      -0.253805        -6.9064
  26   2.0000      -0.244793        -6.6611
  27   2.0000      -0.234609        -6.3840
  28   2.0000      -0.193220        -5.2578
  29   0.0000       0.001435         0.0391
  30   0.0000       0.052956         1.4410
  31   0.0000       0.098067         2.6685
  32   0.0000       0.112090         3.0501
  33   0.0000       0.152772         4.1571

MULLIKEN ATOMIC CHARGES
-----------------------
   0 C :   -0.192817
   1 C :    0.055002
   2 N :   -0.288363
   3 C :    0.065921
   4 N :   -0.117986
   5 C :    0.139538
   6 O :   -0.380492
   7 O :   -0.377639
   8 H :   -0.001489
   9 H :    0.125635
  10 H :   -0.027309
Sum of atomic charges:   -1.0000000

LOEWDIN ATOMIC CHARGES
----------------------
   0 C :   -0.202817
   1 C :    0.020470
   2 N :   -0.274244
   3 C :    0.018368
   4 N :   -0.011219
   5 C :    0.043146
   6 O :   -0.366200
   7 O :   -0.353230
   8 H :    0.017681
   9 H :    0.086278
  10 H :    0.021767

  Mayer bond orders larger than 0.100000
B(  0-C ,  1-C ) :   1.4656 B(  0-C ,  5-C ) :   1.1458 B(  0-C , 10-H ) :   0.9741
B(  1-C ,  2-N ) :   1.4694 B(  1-C ,  8-H ) :   0.9646 B(  2-N ,  3-C ) :   1.3182
B(  3-C ,  4-N ) :   1.0626 B(  3-C ,  6-O ) :   1.9830 B(  4-N ,  5-C ) :   1.0966
B(  4-N ,  9-H ) :   0.8947 B(  5-C ,  7-O ) :   1.9795

FINAL SINGLE POINT ENERGY      -413.842075092024

DIPOLE MOMENT
-------------
                                X             Y             Z
Electronic contribution:     -2.05344       0.20349      -0.07198
Nuclear contribution   :      3.03143       0.30063       0.05746
                        -----------------------------------------
Total Dipole Moment    :      0.97799       0.50412      -0.01453
                        -----------------------------------------
Magnitude (a.u.)       :      1.10037
Magnitude (Debye)      :      2.79692

VIBRATIONAL FREQUENCIES
-----------------------

Scaling factor for frequencies =  1.000000000  (already applied!)

   0:         0.00 cm**-1
   1:         0.00 cm**-1
   2:         0.00 cm**-1
   3:         0.00 cm**-1
   4:         0.00 cm**-1
   5:         0.00 cm**-1
   6:       165.79 cm**-1
   7:       191.02 cm**-1
   8:       393.76 cm**-1
   9:       440.55 cm**-1
  10:       529.88 cm**-1
  11:       562.88 cm**-1
  12:       610.85 cm**-1
  13:       676.26 cm**-1
  14:       735.62 cm**-1
  15:       800.66 cm**-1
  16:       804.67 cm**-1
  17:       809.93 cm**-1
  18:       977.07 cm**-1
  19:      1006.34 cm**-1
  20:      1007.50 cm**-1
  21:      1093.14 cm**-1
  22:      1177.08 cm**-1
  23:      1316.62 cm**-1
  24:      1354.58 cm**-1
  25:      1389.96 cm**-1
  26:      1491.64 cm**-1
  27:      1588.90 cm**-1
  28:      1686.70 cm**-1
  29:      1724.05 cm**-1
  30:      3101.54 cm**-1
  31:      3206.96 cm**-1
  32:      3573.43 cm**-1

IR SPECTRUM
-----------

 Mode    freq (cm**-1)   T**2         TX         TY         TZ
-------------------------------------------------------------------
   6:       165.79    8.649486  (  0.062403  -0.228214  -2.931469)
   7:       191.02    5.257959  ( -0.052669   0.184062   2.285018)
   8:       393.76   24.992210  (  4.445398  -2.263766   0.325597)
   9:       440.55   20.088496  ( -0.128025   0.351363   4.466391)
  10:       529.88   15.508487  (  2.743655   2.820437  -0.161171)
  11:       562.88    8.305299  ( -2.880294   0.009046  -0.095520)
  12:       610.85    4.486114  (  2.038908   0.572495   0.034917)
  13:       676.26   81.917506  (  0.242765  -0.711862  -9.019525)
  14:       735.62    9.756651  (  0.070668  -0.289871  -3.109282)
  15:       800.66   21.892147  (  0.139737  -0.381903  -4.661198)
  16:       804.67    5.376505  (  1.714044  -1.561586  -0.002754)
  17:       809.93   95.365238  ( -0.245149   0.766575   9.732292)
  18:       977.07   47.084685  ( -3.991663   5.553035  -0.561350)
  19:      1006.34    0.615996  ( -0.023330  -0.118216   0.775549)
  20:      1007.50    7.646125  ( -0.414677  -2.728609   0.169887)
  21:      1093.14    3.910196  (  1.965522   0.212404   0.042483)
  22:      1177.08   15.944785  ( -1.282724   3.764595  -0.356692)
  23:      1316.62  261.113963  ( -5.848163 -15.024422   1.086140)
  24:      1354.58   58.408445  ( -7.636448  -0.245370  -0.181370)
  25:      1389.96   19.716254  ( -4.235648   1.312069  -0.232419)
  26:      1491.64  284.274704  (-16.851569   0.247440  -0.487958)
  27:      1588.90  649.506847  (-14.668962 -20.798480   1.323493)
  28:      1686.70  1663.489018  ( 24.408842  32.611468  -2.046854)
  29:      1724.05  766.885274  ( 21.267088 -17.618997   2.041371)
  30:      3101.54   75.825103  ( -7.289002   4.729645  -0.570981)
  31:      3206.96    8.132700  ( -2.500358  -1.370048   0.062297)
  32:      3573.43   53.967416  (  6.263002  -3.806854   0.500084)

--------------------------
THERMOCHEMISTRY AT 298.15K
--------------------------

Temperature         ... 298.15 K
Pressure            ... 1.00 atm
Total Mass          ... 111.08 AMU

Throughout the following assumptions are being made:
  (1) The electronic state is orbitally nondegenerate
  (2) There are no thermally accessible electronically excited states
  (3) Hindered rotations indicated by low frequency modes are not
      treated as such but are treated as vibrations and this may
      cause some error
  (4) All equations used are the standard statistical mechanics
      equations for an ideal gas
  (5) All vibrations are strictly harmonic

freq.     165.79  E(vib)   ...       0.39
freq.     191.02  E(vib)   ...       0.36
freq.     393.76  E(vib)   ...       0.20
freq.     440.55  E(vib)   ...       0.17
freq.     529.88  E(vib)   ...       0.13
freq.     562.88  E(vib)   ...       0.11
freq.     610.85  E(vib)   ...       0.10
freq.     676.26  E(vib)   ...       0.08
freq.     735.62  E(vib)   ...       0.06
freq.     800.66  E(vib)   ...       0.05
freq.     804.67  E(vib)   ...       0.05
freq.     809.93  E(vib)   ...       0.05
freq.     977.07  E(vib)   ...       0.03
freq.    1006.34  E(vib)   ...       0.02
freq.    1007.50  E(vib)   ...       0.02
freq.    1093.14  E(vib)   ...       0.02
freq.    1177.08  E(vib)   ...       0.01
freq.    1316.62  E(vib)   ...       0.01
freq.    1354.58  E(vib)   ...       0.01
freq.    1389.96  E(vib)   ...       0.00
freq.    1491.64  E(vib)   ...       0.00
freq.    1588.90  E(vib)   ...       0.00
freq.    1686.70  E(vib)   ...       0.00
freq.    1724.05  E(vib)   ...       0.00
freq.    3101.54  E(vib)   ...       0.00
freq.    3206.96  E(vib)   ...       0.00
freq.    3573.43  E(vib)   ...       0.00

------------
INNER ENERGY
------------

The inner energy is: U= E(el) + E(ZPE) + E(vib) + E(rot) + E(trans)
    E(el)   - is the total energy from the electronic structure calculation
              = E(kin-el) + E(nuc-el) + E(el-el) + E(nuc-nuc)
    E(ZPE)  - the the zero temperature vibrational energy from the frequency calculation
    E(vib)  - the the finite temperature correction to E(ZPE) due to population
              of excited vibrational states
    E(rot)  - is the rotational thermal energy
    E(trans)- is the translational thermal energy

Summary of contributions to the inner energy U:
Electronic energy                ...   -413.84207509 Eh
Zero point energy                ...      0.07385223 Eh      46.34 kcal/mol
Thermal vibrational correction   ...      0.00296582 Eh       1.86 kcal/mol
Thermal rotational correction    ...      0.00141627 Eh       0.89 kcal/mol
Thermal translational correction ...      0.00141627 Eh       0.89 kcal/mol
-----------------------------------------------------------------------
Total thermal energy                   -413.76242450 Eh

Summary of corrections to the electronic energy:
(perhaps to be used in another calculation)
Total thermal correction                  0.00579836 Eh       3.64 kcal/mol
Non-thermal (ZPE) correction              0.07385223 Eh      46.34 kcal/mol
-----------------------------------------------------------------------
Total correction                          0.07965059 Eh      49.98 kcal/mol

--------
ENTHALPY
--------

The enthalpy is H = U + kB*T
                kB is Boltzmann's constant
Total free energy                 ...   -413.76242450 Eh
Thermal Enthalpy correction       ...      0.00094421 Eh       0.59 kcal/mol
-----------------------------------------------------------------------
Total Enthalpy                    ...   -413.76148029 Eh

Note: Only C1 symmetry has been detected, increase convergence thresholds
      if your molecule has a higher symmetry. Symmetry factor of 1.0 is
      used for the rotational entropy correction.

Note: Rotational entropy computed according to Herzberg
Infrared and Raman Spectra, Chapter V,1, Van Nostrand Reinhold, 1945
Point Group:  C1, Symmetry Number:   1
Rotational constants in cm-1:     0.132801     0.068100     0.045016

Vibrational entropy computed according to the QRRHO of S. Grimme
Chem.Eur.J. 2012 18 9955

-------
ENTROPY
-------

The entropy contributions are T*S = T*(S(el)+S(vib)+S(rot)+S(trans))
     S(el)   - electronic entropy
     S(vib)  - vibrational entropy
     S(rot)  - rotational entropy
     S(trans)- translational entropy
The entropies will be listed as mutliplied by the temperature to get
units of energy

Electronic entropy                ...      0.00000000 Eh      0.00 kcal/mol
Vibrational entropy               ...      0.00462849 Eh      2.90 kcal/mol
Rotational entropy                ...      0.01319615 Eh      8.28 kcal/mol
Translational entropy             ...      0.01902006 Eh     11.94 kcal/mol
-----------------------------------------------------------------------
Final entropy term                ...      0.03684471 Eh     23.12 kcal/mol

In case the symmetry of your molecule has not been determined correctly
or in case you have a reason to use a different symmetry number we print
out the resulting rotational entropy values for sn=1,12 :
 --------------------------------------------------------
|  sn= 1 | S(rot)=       0.01319615 Eh      8.28 kcal/mol|
|  sn= 2 | S(rot)=       0.01254169 Eh      7.87 kcal/mol|
|  sn= 3 | S(rot)=       0.01215886 Eh      7.63 kcal/mol|
|  sn= 4 | S(rot)=       0.01188724 Eh      7.46 kcal/mol|
|  sn= 5 | S(rot)=       0.01167655 Eh      7.33 kcal/mol|
|  sn= 6 | S(rot)=       0.01150440 Eh      7.22 kcal/mol|
|  sn= 7 | S(rot)=       0.01135886 Eh      7.13 kcal/mol|
|  sn= 8 | S(rot)=       0.01123278 Eh      7.05 kcal/mol|
|  sn= 9 | S(rot)=       0.01112157 Eh      6.98 kcal/mol|
|  sn=10 | S(rot)=       0.01102209 Eh      6.92 kcal/mol|
|  sn=11 | S(rot)=       0.01093210 Eh      6.86 kcal/mol|
|  sn=12 | S(rot)=       0.01084995 Eh      6.81 kcal/mol|
 --------------------------------------------------------

-------------------
GIBBS FREE ENERGY
-------------------

The Gibbs free energy is G = H - T*S

Total enthalpy                    ...   -413.76148029 Eh
Total entropy correction          ...     -0.03684471 Eh    -23.12 kcal/mol
-----------------------------------------------------------------------
Final Gibbs free energy         ...   -413.79832500 Eh

For completeness - the Gibbs free energy minus the electronic energy
G-E(el)                           ...      0.04375009 Eh     27.45 kcal/mol

                             ****ORCA TERMINATED NORMALLY****
TOTAL RUN TIME: 0 days 0 hours 7 minutes 59 seconds 444 msec
