                         Program Version 6.1.0  -  RELEASE   -
|  1> !B3LYP DEF2-SVP FREQ
|  2> !VERYTIGHTOPT
|  3> * XYZ 0 1
|  4> C         -8.23508        1.75252       -0.00446
|  5> C         -6.80437        2.18360        0.03487
|  6> H         -8.30301        0.65382       -0.15041
|  7> H         -8.75566        2.25995       -0.84350
|  8> H         -8.73273        2.02013        0.95115
|  9> O         -6.52860        3.36373        0.18904
| 10> O         -5.82021        1.26961       -0.09983
| 11> H         -4.88856        1.53058       -0.07686
| 12> **                         ****END OF INPUT****
 Total Charge           Charge          ....    0
 Multiplicity           Mult            ....    1
 Number of Electrons    NEL             ....   32
FINAL SINGLE POINT ENERGY      -228.788335354263
FINAL SINGLE POINT ENERGY      -228.795305714214
FINAL SINGLE POINT ENERGY      -228.797770534756
FINAL SINGLE POINT ENERGY      -228.797941504434
FINAL SINGLE POINT ENERGY      -228.797957829068
FINAL SINGLE POINT ENERGY      -228.798031801700
FINAL SINGLE POINT ENERGY      -228.798032321197
FINAL SINGLE POINT ENERGY      -228.798033719702
FINAL SINGLE POINT ENERGY      -228.798033709983
FINAL SINGLE POINT ENERGY      -228.798033723350
FINAL SINGLE POINT ENERGY      -228.798529430140
FINAL SINGLE POINT ENERGY      -228.798576751191
FINAL SINGLE POINT ENERGY      -228.798630171097
FINAL SINGLE POINT ENERGY      -228.798661937265
FINAL SINGLE POINT ENERGY      -228.798666983006
FINAL SINGLE POINT ENERGY      -228.798671478558
FINAL SINGLE POINT ENERGY      -228.798672253985
FINAL SINGLE POINT ENERGY      -228.798671538965
FINAL SINGLE POINT ENERGY      -228.798671700114
                    ***********************HURRAY********************

CARTESIAN COORDINATES (ANGSTROEM)
---------------------------------
  C     -8.215741    1.747503    0.007936
  C     -6.779989    2.176728    0.175011
  H     -8.335383    0.702880    0.335605
  H     -8.496770    1.786902   -1.056252
  H     -8.867994    2.404793    0.595004
  O     -6.390952    3.101325    0.842885
  O     -5.939409    1.386741   -0.529806
  H     -5.041982    1.727067   -0.370383

 Multiplicity           Mult            ....    1
 Number of Electrons    NEL             ....   32
 Basis Dimension        Dim             ....   76

ORBITAL ENERGIES
----------------

  NO   OCC          E(Eh)            E(eV)
   0   2.0000     -19.177059      -521.8343
   1   2.0000     -19.119956      -520.2805
   2   2.0000     -10.315844      -280.7084
   3   2.0000     -10.200348      -277.5656
   4   2.0000      -1.093360       -29.7518
   5   2.0000      -1.001062       -27.2403
   6   2.0000      -0.749196       -20.3867
   7   2.0000      -0.606949       -16.5159
   8   2.0000      -0.484456       -13.1827
   9   2.0000      -0.473702       -12.8901
  10   2.0000      -0.468583       -12.7508
  11   2.0000      -0.409513       -11.1434
  12   2.0000      -0.391747       -10.6600
  13   2.0000      -0.390763       -10.6332
  14   2.0000      -0.320327        -8.7165
  15   2.0000      -0.276304        -7.5186
  16   0.0000       0.010068         0.2740
  17   0.0000       0.053447         1.4544
  18   0.0000       0.081062         2.2058
  19   0.0000       0.126810         3.4507
  20   0.0000       0.136520         3.7149

MULLIKEN ATOMIC CHARGES
-----------------------
   0 C :    0.022564
   1 C :    0.076658
   2 H :    0.046610
   3 H :    0.046620
   4 H :    0.040535
   5 O :   -0.218866
   6 O :   -0.192630
   7 H :    0.178510
Sum of atomic charges:    0.0000000

LOEWDIN ATOMIC CHARGES
----------------------
   0 C :   -0.073812
   1 C :    0.077847
   2 H :    0.047837
   3 H :    0.047964
   4 H :    0.041398
   5 O :   -0.181320
   6 O :   -0.052916
   7 H :    0.093001

  Mayer bond orders larger than 0.100000
B(  0-C ,  1-C ) :   1.0236 B(  0-C ,  2-H ) :   0.9503 B(  0-C ,  3-H ) :   0.9503
B(  0-C ,  4-H ) :   0.9647 B(  1-C ,  5-O ) :   2.1152 B(  1-C ,  6-O ) :   1.2005
B(  6-O ,  7-H ) :   0.9500

FINAL SINGLE POINT ENERGY      -228.798671368789

DIPOLE MOMENT
-------------

Method             : SCF
Type of density    : Electron Density
Multiplicity       :   1
Irrep              :   0
Energy             :  -228.7986713687890017 Eh
Basis              : AO
                                X                 Y                 Z
Electronic contribution:      3.180622239       1.132632625       0.510754890
Nuclear contribution   :     -3.303003469      -1.632908139      -0.883118130
                        -----------------------------------------
Total Dipole Moment    :     -0.122381229      -0.500275514      -0.372363240
                        -----------------------------------------
Magnitude (a.u.)       :      0.635536889
Magnitude (Debye)      :      1.615406394

VIBRATIONAL FREQUENCIES
-----------------------

Scaling factor for frequencies =  1.000000000  (already applied!)

     0:       0.00 cm**-1
     1:       0.00 cm**-1
     2:       0.00 cm**-1
     3:       0.00 cm**-1
     4:       0.00 cm**-1
     5:       0.00 cm**-1
     6:      82.52 cm**-1
     7:     424.18 cm**-1
     8:     543.83 cm**-1
     9:     593.45 cm**-1
    10:     682.30 cm**-1
    11:     873.26 cm**-1
    12:     991.77 cm**-1
    13:    1054.33 cm**-1
    14:    1214.65 cm**-1
    15:    1336.61 cm**-1
    16:    1407.29 cm**-1
    17:    1439.67 cm**-1
    18:    1448.02 cm**-1
    19:    1869.00 cm**-1
    20:    3049.36 cm**-1
    21:    3126.06 cm**-1
    22:    3178.16 cm**-1
    23:    3742.92 cm**-1

IR SPECTRUM
-----------

 Mode   freq       eps      Int      T**2         TX        TY        TZ
       cm**-1   L/(mol*cm) km/mol    a.u.
----------------------------------------------------------------------------
  6:     82.52   0.000162    0.82  0.000614  ( 0.002386 -0.015225  0.019392)
  7:    424.18   0.000752    3.80  0.000553  (-0.007398  0.017148  0.014305)
  8:    543.83   0.004102   20.73  0.002354  ( 0.003947 -0.029390  0.038398)
  9:    593.45   0.008462   42.77  0.004450  ( 0.064265 -0.010111 -0.014753)
 10:    682.30   0.019698   99.55  0.009009  ( 0.008519 -0.057705  0.074880)
 11:    873.26   0.000773    3.91  0.000276  ( 0.014939  0.006450  0.003403)
 12:    991.77   0.009229   46.64  0.002904  ( 0.040565 -0.025728 -0.024425)
 13:   1054.33   0.002044   10.33  0.000605  (-0.002388  0.014882 -0.019437)
 14:   1214.65   0.042123  212.87  0.010822  (-0.078570  0.049398  0.046995)
 15:   1336.61   0.003140   15.87  0.000733  ( 0.016634 -0.015937 -0.014226)
 16:   1407.29   0.019102   96.53  0.004236  ( 0.062137 -0.011357 -0.015681)
 17:   1439.67   0.002578   13.03  0.000559  ( 0.012383  0.016676  0.011286)
 18:   1448.02   0.001908    9.64  0.000411  ( 0.001649 -0.012158  0.016147)
 19:   1869.00   0.060852  307.52  0.010160  ( 0.017837  0.079560  0.059265)
 20:   3049.36   0.000217    1.10  0.000022  (-0.003510 -0.002676 -0.001649)
 21:   3126.06   0.000556    2.81  0.000055  (-0.000644  0.004520 -0.005886)
 22:   3178.16   0.000542    2.74  0.000053  (-0.004218  0.004468  0.003930)
 23:   3742.92   0.012246   61.89  0.001021  (-0.031588 -0.004815 -0.000080)

--------------------------
THERMOCHEMISTRY AT 298.15K
--------------------------

Temperature         ...   298.15 K
Pressure            ...     1.00 atm
Total Mass          ...    60.05 AMU
Quasi RRHO          ...     True
Cut-Off Frequency   ...     1.00 cm^-1

Throughout the following assumptions are being made:
  (1) The electronic state is orbitally nondegenerate
  (2) There are no thermally accessible electronically excited states
  (3) Hindered rotations indicated by low frequency modes are not
      treated as such but are treated as vibrations and this may
      cause some error
  (4) All equations used are the standard statistical mechanics
      equations for an ideal gas
  (5) All vibrations are strictly harmonic

freq.      82.52  E(vib)   ...       0.48
freq.     424.18  E(vib)   ...       0.18
freq.     543.83  E(vib)   ...       0.12
freq.     593.45  E(vib)   ...       0.10
freq.     682.30  E(vib)   ...       0.08
freq.     873.26  E(vib)   ...       0.04
freq.     991.77  E(vib)   ...       0.02
freq.    1054.33  E(vib)   ...       0.02
freq.    1214.65  E(vib)   ...       0.01
freq.    1336.61  E(vib)   ...       0.01
freq.    1407.29  E(vib)   ...       0.00
freq.    1439.67  E(vib)   ...       0.00
freq.    1448.02  E(vib)   ...       0.00
freq.    1869.00  E(vib)   ...       0.00
freq.    3049.36  E(vib)   ...       0.00
freq.    3126.06  E(vib)   ...       0.00
freq.    3178.16  E(vib)   ...       0.00
freq.    3742.92  E(vib)   ...       0.00

------------
INNER ENERGY
------------

The inner energy is: U= E(el) + E(ZPE) + E(vib) + E(rot) + E(trans)
    E(el)   - is the total energy from the electronic structure calculation
              = E(kin-el) + E(nuc-el) + E(el-el) + E(nuc-nuc)
    E(ZPE)  - the the zero temperature vibrational energy from the frequency calculation
    E(vib)  - the the finite temperature correction to E(ZPE) due to population
              of excited vibrational states
    E(rot)  - is the rotational thermal energy
    E(trans)- is the translational thermal energy

Summary of contributions to the inner energy U:
Electronic energy                ...   -228.79867137 Eh
Zero point energy                ...      0.06164128 Eh      38.68 kcal/mol
Thermal vibrational correction   ...      0.00170620 Eh       1.07 kcal/mol
Thermal rotational correction    ...      0.00141627 Eh       0.89 kcal/mol
Thermal translational correction ...      0.00141627 Eh       0.89 kcal/mol
-----------------------------------------------------------------------
Total thermal energy                   -228.73249134 Eh

Summary of corrections to the electronic energy:
(perhaps to be used in another calculation)
Total thermal correction                  0.00453875 Eh       2.85 kcal/mol
Non-thermal (ZPE) correction              0.06164128 Eh      38.68 kcal/mol
-----------------------------------------------------------------------
Total correction                          0.06618003 Eh      41.53 kcal/mol

--------
ENTHALPY
--------

The enthalpy is H = U + kB*T
                kB is Boltzmann's constant
Total thermal energy              ...   -228.73249134 Eh
Thermal Enthalpy correction       ...      0.00094421 Eh       0.59 kcal/mol
-----------------------------------------------------------------------
Total Enthalpy                    ...   -228.73154713 Eh

Note: Only C1 symmetry has been detected, increase convergence thresholds
      if your molecule has a higher symmetry. Symmetry factor of 1.0 is
      used for the rotational entropy correction.

Note: Rotational entropy computed according to Herzberg
Infrared and Raman Spectra, Chapter V,1, Van Nostrand Reinhold, 1945
Point Group:  C1, Symmetry Number:   1
Rotational constants in cm-1:     0.378950     0.314179     0.177490

Vibrational entropy computed according to the QRRHO of S. Grimme
Chem.Eur.J. 2012 18 9955 using a reference frequency of 100.0 cm-1

-------
ENTROPY
-------

The entropy contributions are T*S = T*(S(el)+S(vib)+S(rot)+S(trans))
     S(el)   - electronic entropy
     S(vib)  - vibrational entropy
     S(rot)  - rotational entropy
     S(trans)- translational entropy
The entropies will be listed as multiplied by the temperature to get
units of energy

Electronic entropy                ...      0.00000000 Eh      0.00 kcal/mol
Vibrational entropy               ...      0.00283119 Eh      1.78 kcal/mol
Rotational entropy                ...      0.01133166 Eh      7.11 kcal/mol
Translational entropy             ...      0.01814900 Eh     11.39 kcal/mol
-----------------------------------------------------------------------
Final entropy term                ...      0.03231185 Eh     20.28 kcal/mol

In case the symmetry of your molecule has not been determined correctly
or in case you have a reason to use a different symmetry number we print
out the resulting rotational entropy values for sn=1,12:

 non-linear molecules -----------------------------------
|  sn= 1 | S(rot)=       0.01133166 Eh      7.11 kcal/mol|
|  sn= 2 | S(rot)=       0.01067720 Eh      6.70 kcal/mol|
|  sn= 3 | S(rot)=       0.01029437 Eh      6.46 kcal/mol|
|  sn= 4 | S(rot)=       0.01002274 Eh      6.29 kcal/mol|
|  sn= 5 | S(rot)=       0.00981206 Eh      6.16 kcal/mol|
|  sn= 6 | S(rot)=       0.00963991 Eh      6.05 kcal/mol|
|  sn= 7 | S(rot)=       0.00949436 Eh      5.96 kcal/mol|
|  sn= 8 | S(rot)=       0.00936829 Eh      5.88 kcal/mol|
|  sn= 9 | S(rot)=       0.00925708 Eh      5.81 kcal/mol|
|  sn=10 | S(rot)=       0.00915760 Eh      5.75 kcal/mol|
|  sn=11 | S(rot)=       0.00906761 Eh      5.69 kcal/mol|
|  sn=12 | S(rot)=       0.00898545 Eh      5.64 kcal/mol|
 linear molecules ---------------------------------------
|  Dinfh | S(rot)=       0.00695814 Eh      4.37 kcal/mol|
|  Cinfv | S(rot)=       0.00761260 Eh      4.78 kcal/mol|
 --------------------------------------------------------

-------------------
GIBBS FREE ENERGY
-------------------

The Gibbs free energy is G = H - T*S

Total enthalpy                    ...   -228.73154713 Eh
Total entropy correction          ...     -0.03231185 Eh    -20.28 kcal/mol
-----------------------------------------------------------------------
Final Gibbs free energy         ...   -228.76385898 Eh

For completeness - the Gibbs free energy minus the electronic energy
G-E(el)                           ...      0.03481239 Eh     21.85 kcal/mol

                             ****ORCA TERMINATED NORMALLY****
TOTAL RUN TIME: 0 days 0 hours 9 minutes 30 seconds 788 msec
