                         Program Version 6.1.0-f.0  -   RELEASE   -
|  1> !B3LYP def2-SVP OPT FREQ CPCM(water) pal16
|  2> * xyz 1 1
|  3>    C        1.42595        0.54579       -0.06621
|  4>    C        1.23202       -0.75083        0.19371
|  5>    N       -0.03350       -1.26223        0.32139
|  6>    C       -1.16035       -0.50853        0.20103
|  7>    N       -1.03684        0.83831       -0.05387
|  8>    C        0.22580        1.37960       -0.20389
|  9>    O       -2.30847       -0.88269        0.29613
| 10>    O        0.22186        2.56700       -0.44722
| 11>    H        2.05878       -1.44956        0.31201
| 12>    H       -0.16666       -2.25433        0.51397
| 13>    H       -1.62671        1.09786       -0.84212
| 14>    H        2.39975        1.00504       -0.18005
| 15>    H       -1.54849        1.36077        0.65492
| 16> **                         ****END OF INPUT****
 Total Charge           Charge          ....    1
 Multiplicity           Mult            ....    1
 Number of Electrons    NEL             ....   58
FINAL SINGLE POINT ENERGY      -414.679665243702
FINAL SINGLE POINT ENERGY      -414.705972754629
FINAL SINGLE POINT ENERGY      -414.712123097120
FINAL SINGLE POINT ENERGY      -414.713809686471
FINAL SINGLE POINT ENERGY      -414.714057086131
FINAL SINGLE POINT ENERGY      -414.714140148053
FINAL SINGLE POINT ENERGY      -414.714181542806
FINAL SINGLE POINT ENERGY      -414.714197199104
FINAL SINGLE POINT ENERGY      -414.714209334596
FINAL SINGLE POINT ENERGY      -414.714215892213
FINAL SINGLE POINT ENERGY      -414.714219628944
FINAL SINGLE POINT ENERGY      -414.714225908832
FINAL SINGLE POINT ENERGY      -414.714230569468
FINAL SINGLE POINT ENERGY      -414.714238392858
FINAL SINGLE POINT ENERGY      -414.714241068884
FINAL SINGLE POINT ENERGY      -414.714241078365
                    ***********************HURRAY********************

CARTESIAN COORDINATES (ANGSTROEM)
---------------------------------
  C      1.417004    0.591416   -0.070509
  C      1.180929   -0.716192    0.214059
  N     -0.066829   -1.277893    0.335652
  C     -1.249594   -0.623130    0.190029
  N     -1.068077    0.859158   -0.030597
  C      0.347060    1.518874   -0.272650
  O     -2.349951   -1.083064    0.229976
  O      0.329722    2.672659   -0.571938
  H      2.003096   -1.420693    0.356744
  H     -0.136921   -2.280482    0.516128
  H     -1.681030    1.139060   -0.816514
  H      2.436149    0.964189   -0.170365
  H     -1.478418    1.342300    0.789785

 Multiplicity           Mult            ....    1
 Number of Electrons    NEL             ....   58
 Basis Dimension        Dim             ....  137

ORBITAL ENERGIES
----------------

  NO   OCC          E(Eh)            E(eV)
   0   2.0000     -19.181051      -521.9429
   1   2.0000     -19.180416      -521.9257
   2   2.0000     -14.468524      -393.7086
   3   2.0000     -14.429505      -392.6468
   4   2.0000     -10.389924      -282.7242
   5   2.0000     -10.357273      -281.8357
   6   2.0000     -10.295637      -280.1585
   7   2.0000     -10.229249      -278.3520
   8   2.0000      -1.123688       -30.5771
   9   2.0000      -1.101350       -29.9693
  10   2.0000      -1.015045       -27.6208
  11   2.0000      -0.977521       -26.5997
  12   2.0000      -0.825532       -22.4639
  13   2.0000      -0.728787       -19.8313
  14   2.0000      -0.679161       -18.4809
  15   2.0000      -0.620445       -16.8832
  16   2.0000      -0.604725       -16.4554
  17   2.0000      -0.596872       -16.2417
  18   2.0000      -0.543152       -14.7799
  19   2.0000      -0.508656       -13.8412
  20   2.0000      -0.496344       -13.5062
  21   2.0000      -0.480243       -13.0681
  22   2.0000      -0.467240       -12.7143
  23   2.0000      -0.452590       -12.3156
  24   2.0000      -0.448800       -12.2125
  25   2.0000      -0.391057       -10.6412
  26   2.0000      -0.359256        -9.7759
  27   2.0000      -0.325143        -8.8476
  28   2.0000      -0.286069        -7.7843
  29   0.0000      -0.106519        -2.8985
  30   0.0000      -0.028265        -0.7691
  31   0.0000       0.031708         0.8628
  32   0.0000       0.046927         1.2770
  33   0.0000       0.056110         1.5268

MULLIKEN ATOMIC CHARGES
-----------------------
   0 C :   -0.102797
   1 C :    0.178525
   2 N :   -0.063146
   3 C :    0.251010
   4 N :   -0.136035
   5 C :    0.243687
   6 O :   -0.147737
   7 O :   -0.141794
   8 H :    0.102432
   9 H :    0.221943
  10 H :    0.255536
  11 H :    0.071618
  12 H :    0.266758
Sum of atomic charges:    1.0000000

LOEWDIN ATOMIC CHARGES
----------------------
   0 C :   -0.105921
   1 C :    0.144896
   2 N :    0.076911
   3 C :    0.145209
   4 N :    0.169901
   5 C :    0.146927
   6 O :   -0.123480
   7 O :   -0.106888
   8 H :    0.077542
   9 H :    0.149199
  10 H :    0.172719
  11 H :    0.073675
  12 H :    0.179311

  Mayer bond orders larger than 0.100000
B(  0-C ,  1-C ) :   1.6186 B(  0-C ,  5-C ) :   1.1304 B(  0-C , 11-H ) :   0.9723
B(  1-C ,  2-N ) :   1.1756 B(  1-C ,  8-H ) :   0.9519 B(  2-N ,  3-C ) :   1.1794
B(  2-N ,  9-H ) :   0.8884 B(  3-C ,  4-N ) :   0.8325 B(  3-C ,  6-O ) :   2.2072
B(  4-N ,  5-C ) :   0.7328 B(  4-N , 10-H ) :   0.8813 B(  4-N , 12-H ) :   0.8805
B(  5-C ,  7-O ) :   2.1950

FINAL SINGLE POINT ENERGY      -414.714251979495

DIPOLE MOMENT
-------------

Method             : SCF
Type of density    : Electron Density
Multiplicity       :   1
Irrep              :   0
Energy             :  -414.7142519794952591 Eh
Basis              : AO
                                X                 Y                 Z
Electronic contribution:     -1.764066241       0.364750127      -0.123280562
Nuclear contribution   :      2.153229549      -1.413834432       0.621632871
                        -----------------------------------------
Total Dipole Moment    :      0.389163308      -1.049084305       0.498352309
                        -----------------------------------------
Magnitude (a.u.)       :      1.224900397
Magnitude (Debye)      :      3.113449380

VIBRATIONAL FREQUENCIES
-----------------------

Scaling factor for frequencies =  1.000000000  (already applied!)

     0:       0.00 cm**-1
     1:       0.00 cm**-1
     2:       0.00 cm**-1
     3:       0.00 cm**-1
     4:       0.00 cm**-1
     5:       0.00 cm**-1
     6:      83.14 cm**-1
     7:     153.02 cm**-1
     8:     352.75 cm**-1
     9:     381.45 cm**-1
    10:     456.29 cm**-1
    11:     488.52 cm**-1
    12:     551.76 cm**-1
    13:     570.01 cm**-1
    14:     645.31 cm**-1
    15:     696.02 cm**-1
    16:     709.64 cm**-1
    17:     775.80 cm**-1
    18:     806.33 cm**-1
    19:     909.70 cm**-1
    20:     924.75 cm**-1
    21:    1013.01 cm**-1
    22:    1070.20 cm**-1
    23:    1097.38 cm**-1
    24:    1218.07 cm**-1
    25:    1263.12 cm**-1
    26:    1319.07 cm**-1
    27:    1351.22 cm**-1
    28:    1421.89 cm**-1
    29:    1510.62 cm**-1
    30:    1522.68 cm**-1
    31:    1669.51 cm**-1
    32:    1866.73 cm**-1
    33:    1913.42 cm**-1
    34:    3232.06 cm**-1
    35:    3244.95 cm**-1
    36:    3355.60 cm**-1
    37:    3397.95 cm**-1
    38:    3556.12 cm**-1

IR SPECTRUM
-----------

 Mode   freq       eps      Int      T**2         TX        TY        TZ
       cm**-1   L/(mol*cm) km/mol    a.u.
----------------------------------------------------------------------------
  6:     83.14   0.011450   57.86  0.042975  ( 0.017826  0.033633  0.203780)
  7:    153.02   0.000071    0.36  0.000145  ( 0.003614  0.002562 -0.011187)
  8:    352.75   0.003855   19.48  0.003410  ( 0.023699 -0.052936  0.006794)
  9:    381.45   0.004317   21.82  0.003532  ( 0.018017  0.002432  0.056580)
 10:    456.29   0.011217   56.69  0.007672  ( 0.077185 -0.041343 -0.002199)
 11:    488.52   0.015772   79.70  0.010075  (-0.065814 -0.074298  0.014936)
 12:    551.76   0.000949    4.79  0.000537  ( 0.006728  0.000099 -0.022164)
 13:    570.01   0.000250    1.26  0.000137  ( 0.011568 -0.001404 -0.001113)
 14:    645.31   0.007866   39.75  0.003804  ( 0.010300  0.001562 -0.060792)
 15:    696.02   0.013384   67.64  0.006001  ( 0.042745  0.039702  0.050966)
 16:    709.64   0.021240  107.34  0.009340  ( 0.027823  0.002277 -0.092525)
 17:    775.80   0.000676    3.42  0.000272  ( 0.007282  0.013777 -0.005411)
 18:    806.33   0.002755   13.92  0.001066  (-0.000296  0.014337  0.029333)
 19:    909.70   0.012582   63.59  0.004316  (-0.006364 -0.019166 -0.062517)
 20:    924.75   0.001494    7.55  0.000504  ( 0.008456  0.002405 -0.020664)
 21:   1013.01   0.000063    0.32  0.000019  ( 0.000215  0.002055  0.003881)
 22:   1070.20   0.005681   28.71  0.001657  (-0.038051  0.014447  0.000082)
 23:   1097.38   0.013491   68.18  0.003836  (-0.009713 -0.060049  0.011673)
 24:   1218.07   0.020349  102.84  0.005213  ( 0.006630 -0.071012  0.011258)
 25:   1263.12   0.000689    3.48  0.000170  ( 0.008371  0.008967 -0.004434)
 26:   1319.07   0.012943   65.41  0.003062  (-0.052217  0.018309 -0.000547)
 27:   1351.22   0.047542  240.26  0.010980  ( 0.101703  0.022796 -0.010804)
 28:   1421.89   0.006628   33.50  0.001455  ( 0.003448 -0.037335  0.006998)
 29:   1510.62   0.044341  224.08  0.009160  ( 0.094947 -0.008851 -0.008162)
 30:   1522.68   0.047814  241.63  0.009799  ( 0.063471  0.075191 -0.010803)
 31:   1669.51   0.107379  542.65  0.020071  (-0.033756 -0.134709  0.028019)
 32:   1866.73   0.251585  1271.41  0.042058  (-0.104691 -0.172276  0.037663)
 33:   1913.42   0.116274  587.60  0.018963  ( 0.125563 -0.052537  0.020907)
 34:   3232.06   0.002418   12.22  0.000233  ( 0.000465  0.014908 -0.003314)
 35:   3244.95   0.005252   26.54  0.000505  (-0.022457 -0.000604  0.000637)
 36:   3355.60   0.049491  250.11  0.004603  ( 0.050392 -0.042726 -0.015417)
 37:   3397.95   0.050350  254.45  0.004624  ( 0.019035 -0.000216  0.065281)
 38:   3556.12   0.063865  322.75  0.005604  (-0.001423  0.073487 -0.014212)

--------------------------
THERMOCHEMISTRY AT 298.15K
--------------------------

Temperature         ...   298.15 K
Pressure            ...     1.00 atm
Total Mass          ...   113.10 AMU
Quasi RRHO          ...     True
Cut-Off Frequency   ...     1.00 cm^-1

Throughout the following assumptions are being made:
  (1) The electronic state is orbitally nondegenerate
  (2) There are no thermally accessible electronically excited states
  (3) Hindered rotations indicated by low frequency modes are not
      treated as such but are treated as vibrations and this may
      cause some error
  (4) All equations used are the standard statistical mechanics
      equations for an ideal gas
  (5) All vibrations are strictly harmonic

freq.      83.14  E(vib)   ...       0.48
freq.     153.02  E(vib)   ...       0.40
freq.     352.75  E(vib)   ...       0.22
freq.     381.45  E(vib)   ...       0.21
freq.     456.29  E(vib)   ...       0.16
freq.     488.52  E(vib)   ...       0.15
freq.     551.76  E(vib)   ...       0.12
freq.     570.01  E(vib)   ...       0.11
freq.     645.31  E(vib)   ...       0.09
freq.     696.02  E(vib)   ...       0.07
freq.     709.64  E(vib)   ...       0.07
freq.     775.80  E(vib)   ...       0.05
freq.     806.33  E(vib)   ...       0.05
freq.     909.70  E(vib)   ...       0.03
freq.     924.75  E(vib)   ...       0.03
freq.    1013.01  E(vib)   ...       0.02
freq.    1070.20  E(vib)   ...       0.02
freq.    1097.38  E(vib)   ...       0.02
freq.    1218.07  E(vib)   ...       0.01
freq.    1263.12  E(vib)   ...       0.01
freq.    1319.07  E(vib)   ...       0.01
freq.    1351.22  E(vib)   ...       0.01
freq.    1421.89  E(vib)   ...       0.00
freq.    1510.62  E(vib)   ...       0.00
freq.    1522.68  E(vib)   ...       0.00
freq.    1669.51  E(vib)   ...       0.00
freq.    1866.73  E(vib)   ...       0.00
freq.    1913.42  E(vib)   ...       0.00
freq.    3232.06  E(vib)   ...       0.00
freq.    3244.95  E(vib)   ...       0.00
freq.    3355.60  E(vib)   ...       0.00
freq.    3397.95  E(vib)   ...       0.00
freq.    3556.12  E(vib)   ...       0.00

------------
INNER ENERGY
------------

The inner energy is: U= E(el) + E(ZPE) + E(vib) + E(rot) + E(trans)
    E(el)   - is the total energy from the electronic structure calculation
              = E(kin-el) + E(nuc-el) + E(el-el) + E(nuc-nuc)
    E(ZPE)  - the the zero temperature vibrational energy from the frequency calculation
    E(vib)  - the the finite temperature correction to E(ZPE) due to population
              of excited vibrational states
    E(rot)  - is the rotational thermal energy
    E(trans)- is the translational thermal energy

Summary of contributions to the inner energy U:
Electronic energy                ...   -414.71425198 Eh
Zero point energy                ...      0.09916430 Eh      62.23 kcal/mol
Thermal vibrational correction   ...      0.00372868 Eh       2.34 kcal/mol
Thermal rotational correction    ...      0.00141627 Eh       0.89 kcal/mol
Thermal translational correction ...      0.00141627 Eh       0.89 kcal/mol
-----------------------------------------------------------------------
Total thermal energy                   -414.60852645 Eh

Summary of corrections to the electronic energy:
(perhaps to be used in another calculation)
Total thermal correction                  0.00656123 Eh       4.12 kcal/mol
Non-thermal (ZPE) correction              0.09916430 Eh      62.23 kcal/mol
-----------------------------------------------------------------------
Total correction                          0.10572553 Eh      66.34 kcal/mol

--------
ENTHALPY
--------

The enthalpy is H = U + kB*T
                kB is Boltzmann's constant
Total thermal energy              ...   -414.60852645 Eh
Thermal Enthalpy correction       ...      0.00094421 Eh       0.59 kcal/mol
-----------------------------------------------------------------------
Total Enthalpy                    ...   -414.60758224 Eh

Note: Only C1 symmetry has been detected, increase convergence thresholds
      if your molecule has a higher symmetry. Symmetry factor of 1.0 is
      used for the rotational entropy correction.

Note: Rotational entropy computed according to Herzberg
Infrared and Raman Spectra, Chapter V,1, Van Nostrand Reinhold, 1945
Point Group:  C1, Symmetry Number:   1
Rotational constants in cm-1:     0.125783     0.062893     0.042268

Vibrational entropy computed according to the QRRHO of S. Grimme
Chem.Eur.J. 2012 18 9955 using a reference frequency of 100.0 cm-1

-------
ENTROPY
-------

The entropy contributions are T*S = T*(S(el)+S(vib)+S(rot)+S(trans))
     S(el)   - electronic entropy
     S(vib)  - vibrational entropy
     S(rot)  - rotational entropy
     S(trans)- translational entropy
The entropies will be listed as multiplied by the temperature to get
units of energy

Electronic entropy                ...      0.00000000 Eh      0.00 kcal/mol
Vibrational entropy               ...      0.00601626 Eh      3.78 kcal/mol
Rotational entropy                ...      0.01328907 Eh      8.34 kcal/mol
Translational entropy             ...      0.01904554 Eh     11.95 kcal/mol
-----------------------------------------------------------------------
Final entropy term                ...      0.03835087 Eh     24.07 kcal/mol

In case the symmetry of your molecule has not been determined correctly
or in case you have a reason to use a different symmetry number we print
out the resulting rotational entropy values for sn=1,12:

 non-linear molecules -----------------------------------
|  sn= 1 | S(rot)=       0.01328907 Eh      8.34 kcal/mol|
|  sn= 2 | S(rot)=       0.01263462 Eh      7.93 kcal/mol|
|  sn= 3 | S(rot)=       0.01225178 Eh      7.69 kcal/mol|
|  sn= 4 | S(rot)=       0.01198016 Eh      7.52 kcal/mol|
|  sn= 5 | S(rot)=       0.01176947 Eh      7.39 kcal/mol|
|  sn= 6 | S(rot)=       0.01159733 Eh      7.28 kcal/mol|
|  sn= 7 | S(rot)=       0.01145178 Eh      7.19 kcal/mol|
|  sn= 8 | S(rot)=       0.01132570 Eh      7.11 kcal/mol|
|  sn= 9 | S(rot)=       0.01121449 Eh      7.04 kcal/mol|
|  sn=10 | S(rot)=       0.01111501 Eh      6.97 kcal/mol|
|  sn=11 | S(rot)=       0.01102502 Eh      6.92 kcal/mol|
|  sn=12 | S(rot)=       0.01094287 Eh      6.87 kcal/mol|
 linear molecules ---------------------------------------
|  Dinfh | S(rot)=       0.00831295 Eh      5.22 kcal/mol|
|  Cinfv | S(rot)=       0.00896740 Eh      5.63 kcal/mol|
 --------------------------------------------------------

-------------------
GIBBS FREE ENERGY
-------------------

The Gibbs free energy is G = H - T*S

Total enthalpy                    ...   -414.60758224 Eh
Total entropy correction          ...     -0.03835087 Eh    -24.07 kcal/mol
-----------------------------------------------------------------------

                             ****ORCA TERMINATED NORMALLY****
TOTAL RUN TIME: 0 days 0 hours 1 minutes 46 seconds 681 msec
