                         Program Version 4.2.1 -  RELEASE  -
|  1> !B3LYP def2-SVP OPT FREQ CPCM(water)
|  2> %pal
|  3> nprocs 16
|  4> end
|  5> * xyz 1 1
|  6>    C        1.42595        0.54579       -0.06621
|  7>    C        1.23202       -0.75083        0.19371
|  8>    N       -0.03350       -1.26223        0.32139
|  9>    C       -1.16035       -0.50853        0.20103
| 10>    N       -1.03684        0.83831       -0.05387
| 11>    C        0.22580        1.37960       -0.20389
| 12>    O       -2.30847       -0.88269        0.29613
| 13>    O        0.22186        2.56700       -0.44722
| 14>    H        2.05878       -1.44956        0.31201
| 15>    H       -0.16666       -2.25433        0.51397
| 16>    H       -1.62671        1.09786       -0.84212
| 17>    H        2.39975        1.00504       -0.18005
| 18>    H       -1.54849        1.36077        0.65492
| 19> **                         ****END OF INPUT****
 Total Charge           Charge          ....    1
 Multiplicity           Mult            ....    1
 Number of Electrons    NEL             ....   58
FINAL SINGLE POINT ENERGY      -414.682451001108
FINAL SINGLE POINT ENERGY      -414.708330285830
FINAL SINGLE POINT ENERGY      -414.714375281203
FINAL SINGLE POINT ENERGY      -414.716000493403
FINAL SINGLE POINT ENERGY      -414.716257521821
FINAL SINGLE POINT ENERGY      -414.716338234332
FINAL SINGLE POINT ENERGY      -414.716363963084
FINAL SINGLE POINT ENERGY      -414.716373328197
FINAL SINGLE POINT ENERGY      -414.716376979820
FINAL SINGLE POINT ENERGY      -414.716378773829
                    ***********************HURRAY********************

CARTESIAN COORDINATES (ANGSTROEM)
---------------------------------
  C      1.416308    0.589404   -0.075981
  C      1.182133   -0.722561    0.189168
  N     -0.065434   -1.279438    0.327418
  C     -1.245404   -0.614506    0.220550
  N     -1.064365    0.854973   -0.050119
  C      0.344789    1.522436   -0.234906
  O     -2.347941   -1.062619    0.320377
  O      0.330256    2.691608   -0.474498
  H      2.003528   -1.431175    0.310076
  H     -0.138511   -2.277773    0.525639
  H     -1.623046    1.085396   -0.890120
  H      2.434352    0.963454   -0.179110
  H     -1.543525    1.367000    0.711306

 Multiplicity           Mult            ....    1
 Number of Electrons    NEL             ....   58
 Basis Dimension        Dim             ....  137

ORBITAL ENERGIES
----------------

  NO   OCC          E(Eh)            E(eV)
   0   2.0000     -19.179058      -521.8887
   1   2.0000     -19.178690      -521.8787
   2   2.0000     -14.467815      -393.6893
   3   2.0000     -14.428234      -392.6122
   4   2.0000     -10.388928      -282.6971
   5   2.0000     -10.355816      -281.7961
   6   2.0000     -10.294181      -280.1189
   7   2.0000     -10.227666      -278.3089
   8   2.0000      -1.122897       -30.5556
   9   2.0000      -1.099519       -29.9194
  10   2.0000      -1.014383       -27.6028
  11   2.0000      -0.977651       -26.6032
  12   2.0000      -0.824416       -22.4335
  13   2.0000      -0.727960       -19.8088
  14   2.0000      -0.679534       -18.4910
  15   2.0000      -0.619850       -16.8670
  16   2.0000      -0.604812       -16.4578
  17   2.0000      -0.596470       -16.2308
  18   2.0000      -0.542448       -14.7608
  19   2.0000      -0.507860       -13.8196
  20   2.0000      -0.495630       -13.4868
  21   2.0000      -0.478775       -13.0281
  22   2.0000      -0.466079       -12.6827
  23   2.0000      -0.449489       -12.2312
  24   2.0000      -0.448809       -12.2127
  25   2.0000      -0.389527       -10.5996
  26   2.0000      -0.358113        -9.7447
  27   2.0000      -0.323845        -8.8123
  28   2.0000      -0.284794        -7.7496
  29   0.0000      -0.105527        -2.8715
  30   0.0000      -0.027318        -0.7434
  31   0.0000       0.034759         0.9458
  32   0.0000       0.048316         1.3147
  33   0.0000       0.058109         1.5812

MULLIKEN ATOMIC CHARGES
-----------------------
   0 C :   -0.106835
   1 C :    0.182477
   2 N :   -0.063526
   3 C :    0.254545
   4 N :   -0.129722
   5 C :    0.247918
   6 O :   -0.157260
   7 O :   -0.152326
   8 H :    0.103557
   9 H :    0.223783
  10 H :    0.261951
  11 H :    0.070640
  12 H :    0.264799
Sum of atomic charges:    1.0000000

LOEWDIN ATOMIC CHARGES
----------------------
   0 C :   -0.105721
   1 C :    0.146052
   2 N :    0.078786
   3 C :    0.146633
   4 N :    0.175924
   5 C :    0.146482
   6 O :   -0.130667
   7 O :   -0.115061
   8 H :    0.077972
   9 H :    0.149979
  10 H :    0.177333
  11 H :    0.073312
  12 H :    0.178977

  Mayer bond orders larger than 0.100000
B(  0-C ,  1-C ) :   1.6133 B(  0-C ,  5-C ) :   1.1319 B(  0-C , 11-H ) :   0.9749
B(  1-C ,  2-N ) :   1.1760 B(  1-C ,  8-H ) :   0.9524 B(  2-N ,  3-C ) :   1.1843
B(  2-N ,  9-H ) :   0.8875 B(  3-C ,  4-N ) :   0.8352 B(  3-C ,  6-O ) :   2.1997
B(  4-N ,  5-C ) :   0.7419 B(  4-N , 10-H ) :   0.8794 B(  4-N , 12-H ) :   0.8790
B(  5-C ,  7-O ) :   2.1856

FINAL SINGLE POINT ENERGY      -414.716386257488

DIPOLE MOMENT
-------------
                                X             Y             Z
Electronic contribution:     -1.75718       0.35512      -0.03975
Nuclear contribution   :      2.13835      -1.47178       0.31835
                        -----------------------------------------
Total Dipole Moment    :      0.38117      -1.11666       0.27860
                        -----------------------------------------
Magnitude (a.u.)       :      1.21237
Magnitude (Debye)      :      3.08161

VIBRATIONAL FREQUENCIES
-----------------------

Scaling factor for frequencies =  1.000000000  (already applied!)

   0:         0.00 cm**-1
   1:         0.00 cm**-1
   2:         0.00 cm**-1
   3:         0.00 cm**-1
   4:         0.00 cm**-1
   5:         0.00 cm**-1
   6:      -185.92 cm**-1 ***imaginary mode***
   7:       138.93 cm**-1
   8:       344.63 cm**-1
   9:       356.58 cm**-1
  10:       452.47 cm**-1
  11:       486.60 cm**-1
  12:       498.54 cm**-1
  13:       566.18 cm**-1
  14:       601.61 cm**-1
  15:       668.46 cm**-1
  16:       708.44 cm**-1
  17:       780.11 cm**-1
  18:       790.93 cm**-1
  19:       884.18 cm**-1
  20:       921.11 cm**-1
  21:       998.90 cm**-1
  22:      1067.94 cm**-1
  23:      1092.59 cm**-1
  24:      1206.21 cm**-1
  25:      1235.76 cm**-1
  26:      1299.68 cm**-1
  27:      1337.24 cm**-1
  28:      1411.04 cm**-1
  29:      1458.38 cm**-1
  30:      1506.29 cm**-1
  31:      1664.59 cm**-1
  32:      1856.75 cm**-1
  33:      1904.99 cm**-1
  34:      3234.80 cm**-1
  35:      3246.92 cm**-1
  36:      3359.31 cm**-1
  37:      3399.40 cm**-1
  38:      3559.60 cm**-1

IR SPECTRUM
-----------

 Mode    freq (cm**-1)   T**2         TX         TY         TZ
-------------------------------------------------------------------
   7:       138.93    0.708281  (  0.064416  -0.072563  -0.835982)
   8:       344.63   14.445563  ( -0.223975  -0.884541  -3.689578)
   9:       356.58   19.945110  ( -2.141434   3.794641  -0.979831)
  10:       452.47   56.386448  ( -6.616900   3.536350  -0.311936)
  11:       486.60   80.504757  ( -5.790454  -6.707645   1.408154)
  12:       498.54    0.628427  ( -0.101427   0.313144   0.721166)
  13:       566.18    1.166984  ( -1.067447   0.149661  -0.071709)
  14:       601.61   80.059458  (  0.016751  -1.511488  -8.818990)
  15:       668.46   87.099512  ( -0.379411  -2.000864  -9.107804)
  16:       708.44   43.766613  (  5.492223   3.483894  -1.210199)
  17:       780.11    3.925392  (  0.986897   1.639072  -0.514655)
  18:       790.93   15.319779  ( -0.148370  -0.890727  -3.808460)
  19:       884.18   74.583397  (  0.314716   1.766394   8.447734)
  20:       921.11    2.112853  (  1.116285   0.909395  -0.199403)
  21:       998.90    0.252829  ( -0.057511  -0.012196  -0.499373)
  22:      1067.94   34.270448  (  5.323135  -2.420857   0.272272)
  23:      1092.59   71.644797  ( -1.997219  -8.075089   1.564882)
  24:      1206.21   94.937012  ( -0.619352   9.570825  -1.718348)
  25:      1235.76    0.598924  (  0.354042   0.415241  -0.548774)
  26:      1299.68   25.021968  ( -1.266706   4.753728  -0.905256)
  27:      1337.24  272.024584  ( 16.432124   1.123284  -0.864938)
  28:      1411.04   38.323104  ( -0.465162  -6.055136   1.200858)
  29:      1458.38  115.109641  ( -8.854858   6.024876  -0.634037)
  30:      1506.29  387.680826  (-16.569116 -10.366765   2.382311)
  31:      1664.59  594.906469  ( -5.947079 -23.202161   4.604175)
  32:      1856.75  1313.466895  ( 18.158407  30.683877  -6.499139)
  33:      1904.99  623.232810  ( 22.992031  -9.572441   1.722700)
  34:      3234.80   10.169811  ( -0.411783  -3.091939   0.663445)
  35:      3246.92   22.887060  (  4.782224   0.025156  -0.129462)
  36:      3359.31  236.199721  ( 12.220325  -9.316488   0.257736)
  37:      3399.40  248.192682  (  1.437602   2.200205  15.533354)
  38:      3559.60  303.552223  ( -0.400811  17.084801  -3.391332)

--------------------------
THERMOCHEMISTRY AT 298.15K
--------------------------

Temperature         ... 298.15 K
Pressure            ... 1.00 atm
Total Mass          ... 113.10 AMU

Throughout the following assumptions are being made:
  (1) The electronic state is orbitally nondegenerate
  (2) There are no thermally accessible electronically excited states
  (3) Hindered rotations indicated by low frequency modes are not
      treated as such but are treated as vibrations and this may
      cause some error
  (4) All equations used are the standard statistical mechanics
      equations for an ideal gas
  (5) All vibrations are strictly harmonic

freq.     138.93  E(vib)   ...       0.42
freq.     344.63  E(vib)   ...       0.23
freq.     356.58  E(vib)   ...       0.22
freq.     452.47  E(vib)   ...       0.16
freq.     486.60  E(vib)   ...       0.15
freq.     498.54  E(vib)   ...       0.14
freq.     566.18  E(vib)   ...       0.11
freq.     601.61  E(vib)   ...       0.10
freq.     668.46  E(vib)   ...       0.08
freq.     708.44  E(vib)   ...       0.07
freq.     780.11  E(vib)   ...       0.05
freq.     790.93  E(vib)   ...       0.05
freq.     884.18  E(vib)   ...       0.04
freq.     921.11  E(vib)   ...       0.03
freq.     998.90  E(vib)   ...       0.02
freq.    1067.94  E(vib)   ...       0.02
freq.    1092.59  E(vib)   ...       0.02
freq.    1206.21  E(vib)   ...       0.01
freq.    1235.76  E(vib)   ...       0.01
freq.    1299.68  E(vib)   ...       0.01
freq.    1337.24  E(vib)   ...       0.01
freq.    1411.04  E(vib)   ...       0.00
freq.    1458.38  E(vib)   ...       0.00
freq.    1506.29  E(vib)   ...       0.00
freq.    1664.59  E(vib)   ...       0.00
freq.    1856.75  E(vib)   ...       0.00
freq.    1904.99  E(vib)   ...       0.00
freq.    3234.80  E(vib)   ...       0.00
freq.    3246.92  E(vib)   ...       0.00
freq.    3359.31  E(vib)   ...       0.00
freq.    3399.40  E(vib)   ...       0.00
freq.    3559.60  E(vib)   ...       0.00

------------
INNER ENERGY
------------

The inner energy is: U= E(el) + E(ZPE) + E(vib) + E(rot) + E(trans)
    E(el)   - is the total energy from the electronic structure calculation
              = E(kin-el) + E(nuc-el) + E(el-el) + E(nuc-nuc)
    E(ZPE)  - the the zero temperature vibrational energy from the frequency calculation
    E(vib)  - the the finite temperature correction to E(ZPE) due to population
              of excited vibrational states
    E(rot)  - is the rotational thermal energy
    E(trans)- is the translational thermal energy

Summary of contributions to the inner energy U:
Electronic energy                ...   -414.71638626 Eh
Zero point energy                ...      0.09805040 Eh      61.53 kcal/mol
Thermal vibrational correction   ...      0.00311674 Eh       1.96 kcal/mol
Thermal rotational correction    ...      0.00141627 Eh       0.89 kcal/mol
Thermal translational correction ...      0.00141627 Eh       0.89 kcal/mol
-----------------------------------------------------------------------
Total thermal energy                   -414.61238657 Eh

Summary of corrections to the electronic energy:
(perhaps to be used in another calculation)
Total thermal correction                  0.00594929 Eh       3.73 kcal/mol
Non-thermal (ZPE) correction              0.09805040 Eh      61.53 kcal/mol
-----------------------------------------------------------------------
Total correction                          0.10399969 Eh      65.26 kcal/mol

--------
ENTHALPY
--------

The enthalpy is H = U + kB*T
                kB is Boltzmann's constant
Total free energy                 ...   -414.61238657 Eh
Thermal Enthalpy correction       ...      0.00094421 Eh       0.59 kcal/mol
-----------------------------------------------------------------------
Total Enthalpy                    ...   -414.61144236 Eh

Note: Only C1 symmetry has been detected, increase convergence thresholds
      if your molecule has a higher symmetry. Symmetry factor of 1.0 is
      used for the rotational entropy correction.

Note: Rotational entropy computed according to Herzberg
Infrared and Raman Spectra, Chapter V,1, Van Nostrand Reinhold, 1945
Point Group:  C1, Symmetry Number:   1
Rotational constants in cm-1:     0.126035     0.063096     0.042331

Vibrational entropy computed according to the QRRHO of S. Grimme
Chem.Eur.J. 2012 18 9955

-------
ENTROPY
-------

The entropy contributions are T*S = T*(S(el)+S(vib)+S(rot)+S(trans))
     S(el)   - electronic entropy
     S(vib)  - vibrational entropy
     S(rot)  - rotational entropy
     S(trans)- translational entropy
The entropies will be listed as mutliplied by the temperature to get
units of energy

Electronic entropy                ...      0.00000000 Eh      0.00 kcal/mol
Vibrational entropy               ...      0.00473459 Eh      2.97 kcal/mol
Rotational entropy                ...      0.01328589 Eh      8.34 kcal/mol
Translational entropy             ...      0.01904554 Eh     11.95 kcal/mol
-----------------------------------------------------------------------
Final entropy term                ...      0.03706603 Eh     23.26 kcal/mol

In case the symmetry of your molecule has not been determined correctly
or in case you have a reason to use a different symmetry number we print
out the resulting rotational entropy values for sn=1,12 :
 --------------------------------------------------------
|  sn= 1 | S(rot)=       0.01328589 Eh      8.34 kcal/mol|
|  sn= 2 | S(rot)=       0.01263144 Eh      7.93 kcal/mol|
|  sn= 3 | S(rot)=       0.01224860 Eh      7.69 kcal/mol|
|  sn= 4 | S(rot)=       0.01197698 Eh      7.52 kcal/mol|
|  sn= 5 | S(rot)=       0.01176629 Eh      7.38 kcal/mol|
|  sn= 6 | S(rot)=       0.01159415 Eh      7.28 kcal/mol|
|  sn= 7 | S(rot)=       0.01144860 Eh      7.18 kcal/mol|
|  sn= 8 | S(rot)=       0.01132252 Eh      7.10 kcal/mol|
|  sn= 9 | S(rot)=       0.01121132 Eh      7.04 kcal/mol|
|  sn=10 | S(rot)=       0.01111184 Eh      6.97 kcal/mol|
|  sn=11 | S(rot)=       0.01102185 Eh      6.92 kcal/mol|
|  sn=12 | S(rot)=       0.01093969 Eh      6.86 kcal/mol|
 --------------------------------------------------------

-------------------
GIBBS FREE ENERGY
-------------------

The Gibbs free energy is G = H - T*S

Total enthalpy                    ...   -414.61144236 Eh
Total entropy correction          ...     -0.03706603 Eh    -23.26 kcal/mol
-----------------------------------------------------------------------
Final Gibbs free energy         ...   -414.64850838 Eh

For completeness - the Gibbs free energy minus the electronic energy
G-E(el)                           ...      0.06787787 Eh     42.59 kcal/mol

                             ****ORCA TERMINATED NORMALLY****
TOTAL RUN TIME: 0 days 0 hours 2 minutes 41 seconds 769 msec
