                         Program Version 4.2.1 -  RELEASE  -
|  1> !B3LYP def2-SVP VERYTIGHTOPT FREQ CPCM(water)
|  2> %pal
|  3> nprocs 16
|  4> end
|  5> * xyz 1 1
|  6>    C        1.33878        0.51508       -0.01708
|  7>    C        1.24526       -0.81240        0.09268
|  8>    N       -0.02415       -1.41966        0.11620
|  9>    C       -1.17237       -0.61743        0.00888
| 10>    N       -1.05625        0.71979       -0.10636
| 11>    C        0.13881        1.36406       -0.11760
| 12>    O       -2.19305       -1.27075        0.03788
| 13>    O        0.23534        2.57757       -0.20466
| 14>    H        2.15069       -1.41636        0.16463
| 15>    H       -0.21763       -1.98249        0.95584
| 16>    H       -1.89431        1.28315       -0.17534
| 17>    H        2.29444        1.03083       -0.03758
| 18>    H       -0.17622       -2.13392       -0.60893
| 19> *
| 20>
| 21>                          ****END OF INPUT****
 Total Charge           Charge          ....    1
 Multiplicity           Mult            ....    1
 Number of Electrons    NEL             ....   58
FINAL SINGLE POINT ENERGY      -414.696243518399
FINAL SINGLE POINT ENERGY      -414.710424209083
FINAL SINGLE POINT ENERGY      -414.714185531195
FINAL SINGLE POINT ENERGY      -414.714860880325
FINAL SINGLE POINT ENERGY      -414.714744405782
FINAL SINGLE POINT ENERGY      -414.714747789984
FINAL SINGLE POINT ENERGY      -414.714749525096
FINAL SINGLE POINT ENERGY      -414.714747863989
FINAL SINGLE POINT ENERGY      -414.714746553981
FINAL SINGLE POINT ENERGY      -414.714743894969
FINAL SINGLE POINT ENERGY      -414.714750608191
FINAL SINGLE POINT ENERGY      -414.714749327443
FINAL SINGLE POINT ENERGY      -414.714751793247
FINAL SINGLE POINT ENERGY      -414.714742611345
FINAL SINGLE POINT ENERGY      -414.714742399773
FINAL SINGLE POINT ENERGY      -414.714752426936
FINAL SINGLE POINT ENERGY      -414.714750748268
FINAL SINGLE POINT ENERGY      -414.714743049677
FINAL SINGLE POINT ENERGY      -414.714743635835
                    ***********************HURRAY********************

CARTESIAN COORDINATES (ANGSTROEM)
---------------------------------
  C      1.365806    0.534180   -0.017079
  C      1.281919   -0.788385    0.094978
  N     -0.021086   -1.450420    0.117297
  C     -1.289959   -0.622475    0.009761
  N     -1.064346    0.706719   -0.096818
  C      0.168053    1.391241   -0.121408
  O     -2.335190   -1.197807    0.028866
  O      0.193491    2.595013   -0.222361
  H      2.122892   -1.478138    0.177668
  H     -0.115031   -2.016657    0.980322
  H     -1.901304    1.289469   -0.171006
  H      2.335016    1.034006   -0.034097
  H     -0.070919   -2.159275   -0.637562

 Multiplicity           Mult            ....    1
 Number of Electrons    NEL             ....   58
 Basis Dimension        Dim             ....  137

ORBITAL ENERGIES
----------------

  NO   OCC          E(Eh)            E(eV)
   0   2.0000     -19.178639      -521.8773
   1   2.0000     -19.158832      -521.3383
   2   2.0000     -14.487739      -394.2314
   3   2.0000     -14.418941      -392.3593
   4   2.0000     -10.392165      -282.7852
   5   2.0000     -10.346683      -281.5476
   6   2.0000     -10.290347      -280.0146
   7   2.0000     -10.243533      -278.7407
   8   2.0000      -1.124573       -30.6012
   9   2.0000      -1.082874       -29.4665
  10   2.0000      -1.029150       -28.0046
  11   2.0000      -0.971042       -26.4234
  12   2.0000      -0.829314       -22.5668
  13   2.0000      -0.710025       -19.3208
  14   2.0000      -0.706162       -19.2156
  15   2.0000      -0.626854       -17.0576
  16   2.0000      -0.613739       -16.7007
  17   2.0000      -0.597453       -16.2575
  18   2.0000      -0.542253       -14.7555
  19   2.0000      -0.511806       -13.9269
  20   2.0000      -0.493133       -13.4188
  21   2.0000      -0.488890       -13.3034
  22   2.0000      -0.466450       -12.6928
  23   2.0000      -0.448818       -12.2130
  24   2.0000      -0.443250       -12.0615
  25   2.0000      -0.349875        -9.5206
  26   2.0000      -0.332332        -9.0432
  27   2.0000      -0.328715        -8.9448
  28   2.0000      -0.313034        -8.5181
  29   0.0000      -0.095662        -2.6031
  30   0.0000      -0.041265        -1.1229
  31   0.0000       0.028580         0.7777
  32   0.0000       0.056261         1.5309
  33   0.0000       0.069162         1.8820

MULLIKEN ATOMIC CHARGES
-----------------------
   0 C :   -0.044584
   1 C :    0.155672
   2 N :   -0.065292
   3 C :    0.246459
   4 N :   -0.093995
   5 C :    0.213631
   6 O :   -0.162196
   7 O :   -0.197479
   8 H :    0.113632
   9 H :    0.272043
  10 H :    0.210237
  11 H :    0.078883
  12 H :    0.272989
Sum of atomic charges:    1.0000000

LOEWDIN ATOMIC CHARGES
----------------------
   0 C :   -0.019527
   1 C :    0.108199
   2 N :    0.234223
   3 C :    0.149184
   4 N :    0.043368
   5 C :    0.108991
   6 O :   -0.135050
   7 O :   -0.161044
   8 H :    0.077212
   9 H :    0.186535
  10 H :    0.142309
  11 H :    0.078837
  12 H :    0.186763

  Mayer bond orders larger than 0.100000
B(  0-C ,  1-C ) :   1.8348 B(  0-C ,  5-C ) :   1.0032 B(  0-C , 11-H ) :   0.9686
B(  1-C ,  2-N ) :   0.9257 B(  1-C ,  8-H ) :   0.9533 B(  2-N ,  3-C ) :   0.8233
B(  2-N ,  9-H ) :   0.8745 B(  2-N , 12-H ) :   0.8740 B(  3-C ,  4-N ) :   1.2147
B(  3-C ,  6-O ) :   2.1951 B(  4-N ,  5-C ) :   1.0279 B(  4-N , 10-H ) :   0.8778
B(  5-C ,  7-O ) :   2.1359

FINAL SINGLE POINT ENERGY      -414.714750311457

DIPOLE MOMENT
-------------
                                X             Y             Z
Electronic contribution:     -1.95199       0.56658      -0.10205
Nuclear contribution   :      3.38933      -3.72562       0.41425
                        -----------------------------------------
Total Dipole Moment    :      1.43733      -3.15904       0.31220
                        -----------------------------------------
Magnitude (a.u.)       :      3.48467
Magnitude (Debye)      :      8.85732

VIBRATIONAL FREQUENCIES
-----------------------

Scaling factor for frequencies =  1.000000000  (already applied!)

   0:         0.00 cm**-1
   1:         0.00 cm**-1
   2:         0.00 cm**-1
   3:         0.00 cm**-1
   4:         0.00 cm**-1
   5:         0.00 cm**-1
   6:      -159.09 cm**-1 ***imaginary mode***
   7:       134.61 cm**-1
   8:       285.36 cm**-1
   9:       392.13 cm**-1
  10:       475.72 cm**-1
  11:       511.41 cm**-1
  12:       531.20 cm**-1
  13:       542.48 cm**-1
  14:       665.25 cm**-1
  15:       670.44 cm**-1
  16:       690.59 cm**-1
  17:       807.55 cm**-1
  18:       869.55 cm**-1
  19:       921.08 cm**-1
  20:       949.69 cm**-1
  21:       979.96 cm**-1
  22:       982.24 cm**-1
  23:      1157.24 cm**-1
  24:      1246.85 cm**-1
  25:      1269.34 cm**-1
  26:      1330.29 cm**-1
  27:      1365.08 cm**-1
  28:      1384.46 cm**-1
  29:      1442.98 cm**-1
  30:      1477.67 cm**-1
  31:      1741.67 cm**-1
  32:      1817.54 cm**-1
  33:      1903.71 cm**-1
  34:      3235.23 cm**-1
  35:      3249.33 cm**-1
  36:      3339.17 cm**-1
  37:      3365.92 cm**-1
  38:      3534.15 cm**-1

IR SPECTRUM
-----------

 Mode    freq (cm**-1)   T**2         TX         TY         TZ
-------------------------------------------------------------------
   7:       134.61    9.747823  ( -0.095966   0.266008   3.109317)
   8:       285.36    1.849560  ( -0.055349   0.119037   1.353635)
   9:       392.13   58.987635  (  5.984705  -4.774815   0.609983)
  10:       475.72   42.479761  (  2.639071   5.945182  -0.412163)
  11:       511.41   48.892773  (  0.180206  -0.614379  -6.962962)
  12:       531.20   30.080228  ( -4.763985  -2.715232   0.110393)
  13:       542.48    8.361745  ( -0.858665   2.723846  -0.452884)
  14:       665.25    0.574073  (  0.052541   0.003744   0.755843)
  15:       670.44  117.278103  ( -0.296181   0.912541  10.786920)
  16:       690.59   12.900894  (  1.415171  -3.289416   0.279150)
  17:       807.55  116.624789  ( -0.245851   0.873636  10.761092)
  18:       869.55   16.451900  ( -3.078106   2.628226  -0.263800)
  19:       921.08    0.489574  (  0.067324  -0.057042  -0.694109)
  20:       949.69    2.742181  ( -0.672623  -1.509324   0.108172)
  21:       979.96    1.471513  ( -0.732808   0.540611  -0.801402)
  22:       982.24   17.144815  (  3.234040  -2.574841   0.236630)
  23:      1157.24   66.689980  ( -4.036095  -7.076213   0.571950)
  24:      1246.85  153.185944  (  3.508358  11.831731  -0.942074)
  25:      1269.34    1.819884  (  0.125799   0.346108   1.297793)
  26:      1330.29  463.208690  ( 19.715768  -8.529343   1.321924)
  27:      1365.08   94.423145  ( -9.109059  -3.382964  -0.061161)
  28:      1384.46   46.864648  (  5.929669   3.414451  -0.212589)
  29:      1442.98  133.700751  ( -7.198222  -9.032902   0.541332)
  30:      1477.67  117.140756  (  0.999759  10.738026  -0.914352)
  31:      1741.67   24.863313  ( -4.980522   0.159097  -0.180018)
  32:      1817.54  982.243184  ( -7.706670 -30.287228   2.352494)
  33:      1903.71  727.670740  (-23.263941 -13.646646   0.478359)
  34:      3235.23   19.731344  ( -1.545420  -4.152224   0.319456)
  35:      3249.33   23.371540  (  4.485443  -1.775250   0.317536)
  36:      3339.17  300.658237  ( -0.282378  17.312097  -0.932634)
  37:      3365.92  247.090814  (  0.406716  -0.790363 -15.693971)
  38:      3534.15  210.080569  ( 11.122436  -9.228496   1.098568)

--------------------------
THERMOCHEMISTRY AT 298.15K
--------------------------

Temperature         ... 298.15 K
Pressure            ... 1.00 atm
Total Mass          ... 113.10 AMU

Throughout the following assumptions are being made:
  (1) The electronic state is orbitally nondegenerate
  (2) There are no thermally accessible electronically excited states
  (3) Hindered rotations indicated by low frequency modes are not
      treated as such but are treated as vibrations and this may
      cause some error
  (4) All equations used are the standard statistical mechanics
      equations for an ideal gas
  (5) All vibrations are strictly harmonic

freq.     134.61  E(vib)   ...       0.42
freq.     285.36  E(vib)   ...       0.28
freq.     392.13  E(vib)   ...       0.20
freq.     475.72  E(vib)   ...       0.15
freq.     511.41  E(vib)   ...       0.14
freq.     531.20  E(vib)   ...       0.13
freq.     542.48  E(vib)   ...       0.12
freq.     665.25  E(vib)   ...       0.08
freq.     670.44  E(vib)   ...       0.08
freq.     690.59  E(vib)   ...       0.07
freq.     807.55  E(vib)   ...       0.05
freq.     869.55  E(vib)   ...       0.04
freq.     921.08  E(vib)   ...       0.03
freq.     949.69  E(vib)   ...       0.03
freq.     979.96  E(vib)   ...       0.02
freq.     982.24  E(vib)   ...       0.02
freq.    1157.24  E(vib)   ...       0.01
freq.    1246.85  E(vib)   ...       0.01
freq.    1269.34  E(vib)   ...       0.01
freq.    1330.29  E(vib)   ...       0.01
freq.    1365.08  E(vib)   ...       0.01
freq.    1384.46  E(vib)   ...       0.00
freq.    1442.98  E(vib)   ...       0.00
freq.    1477.67  E(vib)   ...       0.00
freq.    1741.67  E(vib)   ...       0.00
freq.    1817.54  E(vib)   ...       0.00
freq.    1903.71  E(vib)   ...       0.00
freq.    3235.23  E(vib)   ...       0.00
freq.    3249.33  E(vib)   ...       0.00
freq.    3339.17  E(vib)   ...       0.00
freq.    3365.92  E(vib)   ...       0.00
freq.    3534.15  E(vib)   ...       0.00

------------
INNER ENERGY
------------

The inner energy is: U= E(el) + E(ZPE) + E(vib) + E(rot) + E(trans)
    E(el)   - is the total energy from the electronic structure calculation
              = E(kin-el) + E(nuc-el) + E(el-el) + E(nuc-nuc)
    E(ZPE)  - the the zero temperature vibrational energy from the frequency calculation
    E(vib)  - the the finite temperature correction to E(ZPE) due to population
              of excited vibrational states
    E(rot)  - is the rotational thermal energy
    E(trans)- is the translational thermal energy

Summary of contributions to the inner energy U:
Electronic energy                ...   -414.71475031 Eh
Zero point energy                ...      0.09857604 Eh      61.86 kcal/mol
Thermal vibrational correction   ...      0.00304968 Eh       1.91 kcal/mol
Thermal rotational correction    ...      0.00141627 Eh       0.89 kcal/mol
Thermal translational correction ...      0.00141627 Eh       0.89 kcal/mol
-----------------------------------------------------------------------
Total thermal energy                   -414.61029205 Eh

Summary of corrections to the electronic energy:
(perhaps to be used in another calculation)
Total thermal correction                  0.00588222 Eh       3.69 kcal/mol
Non-thermal (ZPE) correction              0.09857604 Eh      61.86 kcal/mol
-----------------------------------------------------------------------
Total correction                          0.10445827 Eh      65.55 kcal/mol

--------
ENTHALPY
--------

The enthalpy is H = U + kB*T
                kB is Boltzmann's constant
Total free energy                 ...   -414.61029205 Eh
Thermal Enthalpy correction       ...      0.00094421 Eh       0.59 kcal/mol
-----------------------------------------------------------------------
Total Enthalpy                    ...   -414.60934784 Eh

Note: Only C1 symmetry has been detected, increase convergence thresholds
      if your molecule has a higher symmetry. Symmetry factor of 1.0 is
      used for the rotational entropy correction.

Note: Rotational entropy computed according to Herzberg
Infrared and Raman Spectra, Chapter V,1, Van Nostrand Reinhold, 1945
Point Group:  C1, Symmetry Number:   1
Rotational constants in cm-1:     0.120551     0.066203     0.043025

Vibrational entropy computed according to the QRRHO of S. Grimme
Chem.Eur.J. 2012 18 9955

-------
ENTROPY
-------

The entropy contributions are T*S = T*(S(el)+S(vib)+S(rot)+S(trans))
     S(el)   - electronic entropy
     S(vib)  - vibrational entropy
     S(rot)  - rotational entropy
     S(trans)- translational entropy
The entropies will be listed as mutliplied by the temperature to get
units of energy

Electronic entropy                ...      0.00000000 Eh      0.00 kcal/mol
Vibrational entropy               ...      0.00467351 Eh      2.93 kcal/mol
Rotational entropy                ...      0.01327652 Eh      8.33 kcal/mol
Translational entropy             ...      0.01904554 Eh     11.95 kcal/mol
-----------------------------------------------------------------------
Final entropy term                ...      0.03699558 Eh     23.22 kcal/mol

In case the symmetry of your molecule has not been determined correctly
or in case you have a reason to use a different symmetry number we print
out the resulting rotational entropy values for sn=1,12 :
 --------------------------------------------------------
|  sn= 1 | S(rot)=       0.01327652 Eh      8.33 kcal/mol|
|  sn= 2 | S(rot)=       0.01262207 Eh      7.92 kcal/mol|
|  sn= 3 | S(rot)=       0.01223924 Eh      7.68 kcal/mol|
|  sn= 4 | S(rot)=       0.01196761 Eh      7.51 kcal/mol|
|  sn= 5 | S(rot)=       0.01175692 Eh      7.38 kcal/mol|
|  sn= 6 | S(rot)=       0.01158478 Eh      7.27 kcal/mol|
|  sn= 7 | S(rot)=       0.01143923 Eh      7.18 kcal/mol|
|  sn= 8 | S(rot)=       0.01131316 Eh      7.10 kcal/mol|
|  sn= 9 | S(rot)=       0.01120195 Eh      7.03 kcal/mol|
|  sn=10 | S(rot)=       0.01110247 Eh      6.97 kcal/mol|
|  sn=11 | S(rot)=       0.01101248 Eh      6.91 kcal/mol|
|  sn=12 | S(rot)=       0.01093032 Eh      6.86 kcal/mol|
 --------------------------------------------------------

-------------------
GIBBS FREE ENERGY
-------------------

The Gibbs free energy is G = H - T*S

Total enthalpy                    ...   -414.60934784 Eh
Total entropy correction          ...     -0.03699558 Eh    -23.22 kcal/mol
-----------------------------------------------------------------------
Final Gibbs free energy         ...   -414.64634341 Eh

For completeness - the Gibbs free energy minus the electronic energy
G-E(el)                           ...      0.06840690 Eh     42.93 kcal/mol

                             ****ORCA TERMINATED NORMALLY****
TOTAL RUN TIME: 0 days 0 hours 5 minutes 11 seconds 659 msec
