                         Program Version 6.1.0  -  RELEASE   -
|  1> !B3LYP DEF2-SVP OPT FREQ
|  2> * XYZ 0 1
|  3> C         -8.23508        1.75252       -0.00446
|  4> C         -6.80437        2.18360        0.03487
|  5> H         -8.30301        0.65382       -0.15041
|  6> H         -8.75566        2.25995       -0.84350
|  7> H         -8.73273        2.02013        0.95115
|  8> O         -6.52860        3.36373        0.18904
|  9> O         -5.82021        1.26961       -0.09983
| 10> H         -4.88856        1.53058       -0.07686
| 11> **                         ****END OF INPUT****
 Total Charge           Charge          ....    0
 Multiplicity           Mult            ....    1
 Number of Electrons    NEL             ....   32
FINAL SINGLE POINT ENERGY      -228.788346729130
FINAL SINGLE POINT ENERGY      -228.795303057515
FINAL SINGLE POINT ENERGY      -228.797768027171
FINAL SINGLE POINT ENERGY      -228.797970471007
FINAL SINGLE POINT ENERGY      -228.797954376740
FINAL SINGLE POINT ENERGY      -228.798031881024
FINAL SINGLE POINT ENERGY      -228.798032574120
                    ***********************HURRAY********************

CARTESIAN COORDINATES (ANGSTROEM)
---------------------------------
  C     -8.211940    1.728195   -0.007571
  C     -6.782992    2.213910    0.040796
  H     -8.276710    0.641956   -0.146940
  H     -8.732742    2.243409   -0.829330
  H     -8.716006    2.018133    0.927039
  O     -6.445994    3.360999    0.195488
  O     -5.892728    1.210448   -0.111424
  H     -5.009109    1.616890   -0.068059

 Multiplicity           Mult            ....    1
 Number of Electrons    NEL             ....   32
 Basis Dimension        Dim             ....   76

ORBITAL ENERGIES
----------------

  NO   OCC          E(Eh)            E(eV)
   0   2.0000     -19.178768      -521.8808
   1   2.0000     -19.117796      -520.2217
   2   2.0000     -10.315865      -280.7089
   3   2.0000     -10.200238      -277.5626
   4   2.0000      -1.093813       -29.7642
   5   2.0000      -1.000629       -27.2285
   6   2.0000      -0.748107       -20.3570
   7   2.0000      -0.608696       -16.5634
   8   2.0000      -0.483608       -13.1596
   9   2.0000      -0.474284       -12.9059
  10   2.0000      -0.467849       -12.7308
  11   2.0000      -0.408604       -11.1187
  12   2.0000      -0.392190       -10.6720
  13   2.0000      -0.391072       -10.6416
  14   2.0000      -0.318518        -8.6673
  15   2.0000      -0.275922        -7.5082
  16   0.0000       0.009652         0.2626
  17   0.0000       0.053380         1.4525
  18   0.0000       0.083055         2.2601
  19   0.0000       0.123105         3.3499
  20   0.0000       0.138713         3.7746

MULLIKEN ATOMIC CHARGES
-----------------------
   0 C :    0.019666
   1 C :    0.075289
   2 H :    0.033676
   3 H :    0.051975
   4 H :    0.051499
   5 O :   -0.225674
   6 O :   -0.184803
   7 H :    0.178372
Sum of atomic charges:    0.0000000

LOEWDIN ATOMIC CHARGES
----------------------
   0 C :   -0.074694
   1 C :    0.077963
   2 H :    0.036173
   3 H :    0.051308
   4 H :    0.051027
   5 O :   -0.187449
   6 O :   -0.047464
   7 H :    0.093136

  Mayer bond orders larger than 0.100000
B(  0-C ,  1-C ) :   1.0216 B(  0-C ,  2-H ) :   0.9567 B(  0-C ,  3-H ) :   0.9544
B(  0-C ,  4-H ) :   0.9548 B(  1-C ,  5-O ) :   2.0998 B(  1-C ,  6-O ) :   1.2216
B(  6-O ,  7-H ) :   0.9492

FINAL SINGLE POINT ENERGY      -228.798030446348

DIPOLE MOMENT
-------------

Method             : SCF
Type of density    : Electron Density
Multiplicity       :   1
Irrep              :   0
Energy             :  -228.7980304463476102 Eh
Basis              : AO
                                X                 Y                 Z
Electronic contribution:      3.170361777       1.237314471       0.130293066
Nuclear contribution   :     -3.288691452      -1.817784357      -0.211193787
                        -----------------------------------------
Total Dipole Moment    :     -0.118329674      -0.580469885      -0.080900720
                        -----------------------------------------
Magnitude (a.u.)       :      0.597906453
Magnitude (Debye)      :      1.519757426

VIBRATIONAL FREQUENCIES
-----------------------

Scaling factor for frequencies =  1.000000000  (already applied!)

     0:       0.00 cm**-1
     1:       0.00 cm**-1
     2:       0.00 cm**-1
     3:       0.00 cm**-1
     4:       0.00 cm**-1
     5:       0.00 cm**-1
     6:     -85.78 cm**-1  ***imaginary mode***
     7:     431.02 cm**-1
     8:     550.62 cm**-1
     9:     590.08 cm**-1
    10:     713.86 cm**-1
    11:     868.69 cm**-1
    12:    1003.34 cm**-1
    13:    1050.49 cm**-1
    14:    1212.12 cm**-1
    15:    1340.30 cm**-1
    16:    1390.46 cm**-1
    17:    1450.16 cm**-1
    18:    1457.25 cm**-1
    19:    1865.47 cm**-1
    20:    3053.48 cm**-1
    21:    3133.70 cm**-1
    22:    3169.81 cm**-1
    23:    3734.87 cm**-1

IR SPECTRUM
-----------

 Mode   freq       eps      Int      T**2         TX        TY        TZ
       cm**-1   L/(mol*cm) km/mol    a.u.
----------------------------------------------------------------------------
  7:    431.02   0.000691    3.49  0.000500  ( 0.002223 -0.022029 -0.003201)
  8:    550.62   0.004172   21.08  0.002365  ( 0.000236 -0.006601  0.048176)
  9:    590.08   0.008502   42.96  0.004496  ( 0.065177 -0.015501 -0.002810)
 10:    713.86   0.021496  108.63  0.009397  ( 0.001337 -0.013329  0.096009)
 11:    868.69   0.000862    4.35  0.000310  (-0.013790 -0.010812 -0.001562)
 12:   1003.34   0.005936   30.00  0.001846  (-0.030881  0.029528  0.004556)
 13:   1050.49   0.001760    8.89  0.000523  ( 0.000573 -0.003096  0.022648)
 14:   1212.12   0.047634  240.72  0.012264  ( 0.088802 -0.065362 -0.010271)
 15:   1340.30   0.002833   14.32  0.000660  ( 0.021293 -0.014170 -0.002346)
 16:   1390.46   0.015041   76.01  0.003376  (-0.054117  0.020859  0.003459)
 17:   1450.16   0.001526    7.71  0.000328  ( 0.000761 -0.002126  0.017981)
 18:   1457.25   0.004925   24.89  0.001055  (-0.032344 -0.002879  0.000462)
 19:   1865.47   0.061383  310.21  0.010269  ( 0.014260  0.099386  0.013695)
 20:   3053.48   0.000148    0.75  0.000015  ( 0.003533  0.001603  0.000179)
 21:   3133.70   0.000343    1.73  0.000034  ( 0.000068  0.000932 -0.005769)
 22:   3169.81   0.001021    5.16  0.000100  (-0.002658 -0.009580 -0.001286)
 23:   3734.87   0.011988   60.58  0.001002  ( 0.031318  0.004563  0.000168)

--------------------------
THERMOCHEMISTRY AT 298.15K
--------------------------

Temperature         ...   298.15 K
Pressure            ...     1.00 atm
Total Mass          ...    60.05 AMU
Quasi RRHO          ...     True
Cut-Off Frequency   ...     1.00 cm^-1

Throughout the following assumptions are being made:
  (1) The electronic state is orbitally nondegenerate
  (2) There are no thermally accessible electronically excited states
  (3) Hindered rotations indicated by low frequency modes are not
      treated as such but are treated as vibrations and this may
      cause some error
  (4) All equations used are the standard statistical mechanics
      equations for an ideal gas
  (5) All vibrations are strictly harmonic

freq.     431.02  E(vib)   ...       0.18
freq.     550.62  E(vib)   ...       0.12
freq.     590.08  E(vib)   ...       0.10
freq.     713.86  E(vib)   ...       0.07
freq.     868.69  E(vib)   ...       0.04
freq.    1003.34  E(vib)   ...       0.02
freq.    1050.49  E(vib)   ...       0.02
freq.    1212.12  E(vib)   ...       0.01
freq.    1340.30  E(vib)   ...       0.01
freq.    1390.46  E(vib)   ...       0.00
freq.    1450.16  E(vib)   ...       0.00
freq.    1457.25  E(vib)   ...       0.00
freq.    1865.47  E(vib)   ...       0.00
freq.    3053.48  E(vib)   ...       0.00
freq.    3133.70  E(vib)   ...       0.00
freq.    3169.81  E(vib)   ...       0.00
freq.    3734.87  E(vib)   ...       0.00

------------
INNER ENERGY
------------

The inner energy is: U= E(el) + E(ZPE) + E(vib) + E(rot) + E(trans)
    E(el)   - is the total energy from the electronic structure calculation
              = E(kin-el) + E(nuc-el) + E(el-el) + E(nuc-nuc)
    E(ZPE)  - the the zero temperature vibrational energy from the frequency calculation
    E(vib)  - the the finite temperature correction to E(ZPE) due to population
              of excited vibrational states
    E(rot)  - is the rotational thermal energy
    E(trans)- is the translational thermal energy

Summary of contributions to the inner energy U:
Electronic energy                ...   -228.79803045 Eh
Zero point energy                ...      0.06154624 Eh      38.62 kcal/mol
Thermal vibrational correction   ...      0.00091600 Eh       0.57 kcal/mol
Thermal rotational correction    ...      0.00141627 Eh       0.89 kcal/mol
Thermal translational correction ...      0.00141627 Eh       0.89 kcal/mol
-----------------------------------------------------------------------
Total thermal energy                   -228.73273566 Eh

Summary of corrections to the electronic energy:
(perhaps to be used in another calculation)
Total thermal correction                  0.00374855 Eh       2.35 kcal/mol
Non-thermal (ZPE) correction              0.06154624 Eh      38.62 kcal/mol
-----------------------------------------------------------------------
Total correction                          0.06529479 Eh      40.97 kcal/mol

--------
ENTHALPY
--------

The enthalpy is H = U + kB*T
                kB is Boltzmann's constant
Total thermal energy              ...   -228.73273566 Eh
Thermal Enthalpy correction       ...      0.00094421 Eh       0.59 kcal/mol
-----------------------------------------------------------------------
Total Enthalpy                    ...   -228.73179145 Eh

Note: Only C1 symmetry has been detected, increase convergence thresholds
      if your molecule has a higher symmetry. Symmetry factor of 1.0 is
      used for the rotational entropy correction.

Note: Rotational entropy computed according to Herzberg
Infrared and Raman Spectra, Chapter V,1, Van Nostrand Reinhold, 1945
Point Group:  C1, Symmetry Number:   1
Rotational constants in cm-1:     0.379911     0.312717     0.177227

Vibrational entropy computed according to the QRRHO of S. Grimme
Chem.Eur.J. 2012 18 9955 using a reference frequency of 100.0 cm-1

-------
ENTROPY
-------

The entropy contributions are T*S = T*(S(el)+S(vib)+S(rot)+S(trans))
     S(el)   - electronic entropy
     S(vib)  - vibrational entropy
     S(rot)  - rotational entropy
     S(trans)- translational entropy
The entropies will be listed as multiplied by the temperature to get
units of energy

Electronic entropy                ...      0.00000000 Eh      0.00 kcal/mol
Vibrational entropy               ...      0.00123421 Eh      0.77 kcal/mol
Rotational entropy                ...      0.01133336 Eh      7.11 kcal/mol
Translational entropy             ...      0.01814900 Eh     11.39 kcal/mol
-----------------------------------------------------------------------
Final entropy term                ...      0.03071657 Eh     19.27 kcal/mol

In case the symmetry of your molecule has not been determined correctly
or in case you have a reason to use a different symmetry number we print
out the resulting rotational entropy values for sn=1,12:

 non-linear molecules -----------------------------------
|  sn= 1 | S(rot)=       0.01133336 Eh      7.11 kcal/mol|
|  sn= 2 | S(rot)=       0.01067891 Eh      6.70 kcal/mol|
|  sn= 3 | S(rot)=       0.01029607 Eh      6.46 kcal/mol|
|  sn= 4 | S(rot)=       0.01002445 Eh      6.29 kcal/mol|
|  sn= 5 | S(rot)=       0.00981376 Eh      6.16 kcal/mol|
|  sn= 6 | S(rot)=       0.00964162 Eh      6.05 kcal/mol|
|  sn= 7 | S(rot)=       0.00949607 Eh      5.96 kcal/mol|
|  sn= 8 | S(rot)=       0.00936999 Eh      5.88 kcal/mol|
|  sn= 9 | S(rot)=       0.00925878 Eh      5.81 kcal/mol|
|  sn=10 | S(rot)=       0.00915930 Eh      5.75 kcal/mol|
|  sn=11 | S(rot)=       0.00906931 Eh      5.69 kcal/mol|
|  sn=12 | S(rot)=       0.00898716 Eh      5.64 kcal/mol|
 linear molecules ---------------------------------------
|  Dinfh | S(rot)=       0.00695954 Eh      4.37 kcal/mol|
|  Cinfv | S(rot)=       0.00761400 Eh      4.78 kcal/mol|
 --------------------------------------------------------

-------------------
GIBBS FREE ENERGY
-------------------

The Gibbs free energy is G = H - T*S

Total enthalpy                    ...   -228.73179145 Eh
Total entropy correction          ...     -0.03071657 Eh    -19.27 kcal/mol
-----------------------------------------------------------------------
Final Gibbs free energy         ...   -228.76250802 Eh

For completeness - the Gibbs free energy minus the electronic energy
G-E(el)                           ...      0.03552243 Eh     22.29 kcal/mol

                             ****ORCA TERMINATED NORMALLY****
TOTAL RUN TIME: 0 days 0 hours 2 minutes 36 seconds 591 msec
