                         Program Version 6.1.0  -  RELEASE   -
|  1> !PBE0 FREQ OPT def2-SVP
|  2> * xyz 0 1
|  3>    O     -4.000000000000    0.000000000000    0.000000000000
|  4>    H     -2.973650000000    0.000000000000    0.000000000000
|  5>    H     -5.026350000000    0.000000000000    0.000000000000
|  6> *
|  7>
|  8>
|  9>                          ****END OF INPUT****
 Total Charge           Charge          ....    0
 Multiplicity           Mult            ....    1
 Number of Electrons    NEL             ....   10
FINAL SINGLE POINT ENERGY       -76.211472032268
FINAL SINGLE POINT ENERGY       -76.227213804523
FINAL SINGLE POINT ENERGY       -76.227382847263
FINAL SINGLE POINT ENERGY       -76.227406362688
                    ***********************HURRAY********************

CARTESIAN COORDINATES (ANGSTROEM)
---------------------------------
  O     -4.000000    0.000000   -0.000000
  H     -3.064961   -0.000000    0.000000
  H     -4.935039   -0.000000    0.000000

 Multiplicity           Mult            ....    1
 Number of Electrons    NEL             ....   10
 Basis Dimension        Dim             ....   24

ORBITAL ENERGIES
----------------

  NO   OCC          E(Eh)            E(eV)
   0   2.0000     -19.151214      -521.1310
   1   2.0000      -0.970282       -26.4027
   2   2.0000      -0.599476       -16.3126
   3   2.0000      -0.286240        -7.7890
   4   2.0000      -0.286240        -7.7890
   5   0.0000       0.064469         1.7543
   6   0.0000       0.154869         4.2142
   7   0.0000       0.449111        12.2209
   8   0.0000       0.812474        22.1085
   9   0.0000       0.963227        26.2107

MULLIKEN ATOMIC CHARGES
-----------------------
   0 O :   -0.418851
   1 H :    0.209425
   2 H :    0.209425
Sum of atomic charges:   -0.0000000

LOEWDIN ATOMIC CHARGES
----------------------
   0 O :   -0.170763
   1 H :    0.085381
   2 H :    0.085381

  Mayer bond orders larger than 0.100000
B(  0-O ,  1-H ) :   0.9334 B(  0-O ,  2-H ) :   0.9334

FINAL SINGLE POINT ENERGY       -76.227403834898

DIPOLE MOMENT
-------------

Method             : SCF
Type of density    : Electron Density
Multiplicity       :   1
Irrep              :   0
Energy             :   -76.2274038348976859 Eh
Basis              : AO
                                X                 Y                 Z
Electronic contribution:      0.000000008      -0.000000001      -0.000000005
Nuclear contribution   :      0.000000029      -0.000000007       0.000000034
                        -----------------------------------------
Total Dipole Moment    :      0.000000036      -0.000000008       0.000000030
                        -----------------------------------------
Magnitude (a.u.)       :      0.000000048
Magnitude (Debye)      :      0.000000122

VIBRATIONAL FREQUENCIES
-----------------------

Scaling factor for frequencies =  1.000000000  (already applied!)

     0:       0.00 cm**-1
     1:       0.00 cm**-1
     2:       0.00 cm**-1
     3:       0.00 cm**-1
     4:       0.00 cm**-1
     5:   -1580.89 cm**-1  ***imaginary mode***
     6:   -1580.89 cm**-1  ***imaginary mode***
     7:    4148.95 cm**-1
     8:    4531.81 cm**-1

IR SPECTRUM
-----------

 Mode   freq       eps      Int      T**2         TX        TY        TZ
       cm**-1   L/(mol*cm) km/mol    a.u.
----------------------------------------------------------------------------
  7:   4148.95   0.000000    0.00  0.000000  (-0.000000  0.000000 -0.000000)
  8:   4531.81   0.127749  645.59  0.008797  (-0.093792  0.000000  0.000000)

--------------------------
THERMOCHEMISTRY AT 298.15K
--------------------------

Temperature         ...   298.15 K
Pressure            ...     1.00 atm
Total Mass          ...    18.02 AMU
Quasi RRHO          ...     True
Cut-Off Frequency   ...     1.00 cm^-1
The molecule is recognized as being linear

Throughout the following assumptions are being made:
  (1) The electronic state is orbitally nondegenerate
  (2) There are no thermally accessible electronically excited states
  (3) Hindered rotations indicated by low frequency modes are not
      treated as such but are treated as vibrations and this may
      cause some error
  (4) All equations used are the standard statistical mechanics
      equations for an ideal gas
  (5) All vibrations are strictly harmonic

freq.    4148.95  E(vib)   ...       0.00
freq.    4531.81  E(vib)   ...       0.00

------------
INNER ENERGY
------------

The inner energy is: U= E(el) + E(ZPE) + E(vib) + E(rot) + E(trans)
    E(el)   - is the total energy from the electronic structure calculation
              = E(kin-el) + E(nuc-el) + E(el-el) + E(nuc-nuc)
    E(ZPE)  - the the zero temperature vibrational energy from the frequency calculation
    E(vib)  - the the finite temperature correction to E(ZPE) due to population
              of excited vibrational states
    E(rot)  - is the rotational thermal energy
    E(trans)- is the translational thermal energy

Summary of contributions to the inner energy U:
Electronic energy                ...    -76.22740383 Eh
Zero point energy                ...      0.01977623 Eh      12.41 kcal/mol
Thermal vibrational correction   ...      0.00000000 Eh       0.00 kcal/mol
Thermal rotational correction    ...      0.00094418 Eh       0.59 kcal/mol
Thermal translational correction ...      0.00141627 Eh       0.89 kcal/mol
-----------------------------------------------------------------------
Total thermal energy                    -76.20526716 Eh

Summary of corrections to the electronic energy:
(perhaps to be used in another calculation)
Total thermal correction                  0.00236045 Eh       1.48 kcal/mol
Non-thermal (ZPE) correction              0.01977623 Eh      12.41 kcal/mol
-----------------------------------------------------------------------
Total correction                          0.02213668 Eh      13.89 kcal/mol

--------
ENTHALPY
--------

The enthalpy is H = U + kB*T
                kB is Boltzmann's constant
Total thermal energy              ...    -76.20526716 Eh
Thermal Enthalpy correction       ...      0.00094421 Eh       0.59 kcal/mol
-----------------------------------------------------------------------
Total Enthalpy                    ...    -76.20432295 Eh

Note: Rotational entropy computed according to Herzberg
Infrared and Raman Spectra, Chapter V,1, Van Nostrand Reinhold, 1945
Point Group:  D(inf)h, Symmetry Number:   2
Rotational constants in cm-1:     0.000000     9.564172     9.564172

Vibrational entropy computed according to the QRRHO of S. Grimme
Chem.Eur.J. 2012 18 9955 using a reference frequency of 100.0 cm-1

-------
ENTROPY
-------

The entropy contributions are T*S = T*(S(el)+S(vib)+S(rot)+S(trans))
     S(el)   - electronic entropy
     S(vib)  - vibrational entropy
     S(rot)  - rotational entropy
     S(trans)- translational entropy
The entropies will be listed as multiplied by the temperature to get
units of energy

Electronic entropy                ...      0.00000000 Eh      0.00 kcal/mol
Vibrational entropy               ...     -0.00000000 Eh     -0.00 kcal/mol
Rotational entropy                ...      0.00319382 Eh      2.00 kcal/mol
Translational entropy             ...      0.01644380 Eh     10.32 kcal/mol
-----------------------------------------------------------------------
Final entropy term                ...      0.01963762 Eh     12.32 kcal/mol

-------------------
GIBBS FREE ENERGY
-------------------

The Gibbs free energy is G = H - T*S

Total enthalpy                    ...    -76.20432295 Eh
Total entropy correction          ...     -0.01963762 Eh    -12.32 kcal/mol
-----------------------------------------------------------------------
Final Gibbs free energy         ...    -76.22396057 Eh

For completeness - the Gibbs free energy minus the electronic energy
G-E(el)                           ...      0.00344326 Eh      2.16 kcal/mol

                             ****ORCA TERMINATED NORMALLY****
TOTAL RUN TIME: 0 days 0 hours 0 minutes 18 seconds 544 msec
