                         Program Version 6.1.0  -  RELEASE   -
|  1> !PBE0 FREQ OPT def2-SVP
|  2> * xyz 0 1
|  3>    O       -4.00000        0.00000        0.00000
|  4>    H       -2.97365        0.00000        0.00000
|  5>    H       -3.99650       -0.97855        0.31165
|  6> *
|  7>
|  8>
|  9>                          ****END OF INPUT****
 Total Charge           Charge          ....    0
 Multiplicity           Mult            ....    1
 Number of Electrons    NEL             ....   10
FINAL SINGLE POINT ENERGY       -76.266658038681
FINAL SINGLE POINT ENERGY       -76.275111158515
FINAL SINGLE POINT ENERGY       -76.276354946022
FINAL SINGLE POINT ENERGY       -76.276445829022
FINAL SINGLE POINT ENERGY       -76.276447623520
                    ***********************HURRAY********************

CARTESIAN COORDINATES (ANGSTROEM)
---------------------------------
  O     -3.939247   -0.057981    0.018466
  H     -2.983153    0.048811   -0.015545
  H     -4.047750   -0.969380    0.308730

 Multiplicity           Mult            ....    1
 Number of Electrons    NEL             ....   10
 Basis Dimension        Dim             ....   24

ORBITAL ENERGIES
----------------

  NO   OCC          E(Eh)            E(eV)
   0   2.0000     -19.192974      -522.2674
   1   2.0000      -1.007102       -27.4046
   2   2.0000      -0.526471       -14.3260
   3   2.0000      -0.382571       -10.4103
   4   2.0000      -0.305382        -8.3099
   5   0.0000       0.063829         1.7369
   6   0.0000       0.142572         3.8796
   7   0.0000       0.576205        15.6793
   8   0.0000       0.644051        17.5255
   9   0.0000       0.941392        25.6166

MULLIKEN ATOMIC CHARGES
-----------------------
   0 O :   -0.306835
   1 H :    0.153427
   2 H :    0.153407
Sum of atomic charges:    0.0000000

LOEWDIN ATOMIC CHARGES
----------------------
   0 O :   -0.148749
   1 H :    0.074374
   2 H :    0.074375

  Mayer bond orders larger than 0.100000
B(  0-O ,  1-H ) :   1.0077 B(  0-O ,  2-H ) :   1.0077

FINAL SINGLE POINT ENERGY       -76.276445546593

DIPOLE MOMENT
-------------

Method             : SCF
Type of density    : Electron Density
Multiplicity       :   1
Irrep              :   0
Energy             :   -76.2764455465928393 Eh
Basis              : AO
                                X                 Y                 Z
Electronic contribution:     -0.139441533       0.132321682      -0.042184463
Nuclear contribution   :      0.705501438      -0.669723723       0.213294567
                        -----------------------------------------
Total Dipole Moment    :      0.566059905      -0.537402041       0.171110104
                        -----------------------------------------
Magnitude (a.u.)       :      0.799064101
Magnitude (Debye)      :      2.031059533

VIBRATIONAL FREQUENCIES
-----------------------

Scaling factor for frequencies =  1.000000000  (already applied!)

     0:       0.00 cm**-1
     1:       0.00 cm**-1
     2:       0.00 cm**-1
     3:       0.00 cm**-1
     4:       0.00 cm**-1
     5:       0.00 cm**-1
     6:    1643.22 cm**-1
     7:    3865.42 cm**-1
     8:    3965.05 cm**-1

IR SPECTRUM
-----------

 Mode   freq       eps      Int      T**2         TX        TY        TZ
       cm**-1   L/(mol*cm) km/mol    a.u.
----------------------------------------------------------------------------
  6:   1643.22   0.011701   59.13  0.002222  ( 0.033402 -0.031702  0.010071)
  7:   3865.42   0.001788    9.04  0.000144  ( 0.008513 -0.008072  0.002589)
  8:   3965.05   0.007679   38.80  0.000604  ( 0.017345  0.016598 -0.005290)

--------------------------
THERMOCHEMISTRY AT 298.15K
--------------------------

Temperature         ...   298.15 K
Pressure            ...     1.00 atm
Total Mass          ...    18.02 AMU
Quasi RRHO          ...     True
Cut-Off Frequency   ...     1.00 cm^-1

Throughout the following assumptions are being made:
  (1) The electronic state is orbitally nondegenerate
  (2) There are no thermally accessible electronically excited states
  (3) Hindered rotations indicated by low frequency modes are not
      treated as such but are treated as vibrations and this may
      cause some error
  (4) All equations used are the standard statistical mechanics
      equations for an ideal gas
  (5) All vibrations are strictly harmonic

freq.    1643.22  E(vib)   ...       0.00
freq.    3865.42  E(vib)   ...       0.00
freq.    3965.05  E(vib)   ...       0.00

------------
INNER ENERGY
------------

The inner energy is: U= E(el) + E(ZPE) + E(vib) + E(rot) + E(trans)
    E(el)   - is the total energy from the electronic structure calculation
              = E(kin-el) + E(nuc-el) + E(el-el) + E(nuc-nuc)
    E(ZPE)  - the the zero temperature vibrational energy from the frequency calculation
    E(vib)  - the the finite temperature correction to E(ZPE) due to population
              of excited vibrational states
    E(rot)  - is the rotational thermal energy
    E(trans)- is the translational thermal energy

Summary of contributions to the inner energy U:
Electronic energy                ...    -76.27644555 Eh
Zero point energy                ...      0.02158264 Eh      13.54 kcal/mol
Thermal vibrational correction   ...      0.00000270 Eh       0.00 kcal/mol
Thermal rotational correction    ...      0.00141627 Eh       0.89 kcal/mol
Thermal translational correction ...      0.00141627 Eh       0.89 kcal/mol
-----------------------------------------------------------------------
Total thermal energy                    -76.25202766 Eh

Summary of corrections to the electronic energy:
(perhaps to be used in another calculation)
Total thermal correction                  0.00283524 Eh       1.78 kcal/mol
Non-thermal (ZPE) correction              0.02158264 Eh      13.54 kcal/mol
-----------------------------------------------------------------------
Total correction                          0.02441788 Eh      15.32 kcal/mol

--------
ENTHALPY
--------

The enthalpy is H = U + kB*T
                kB is Boltzmann's constant
Total thermal energy              ...    -76.25202766 Eh
Thermal Enthalpy correction       ...      0.00094421 Eh       0.59 kcal/mol
-----------------------------------------------------------------------
Total Enthalpy                    ...    -76.25108345 Eh

Note: Rotational entropy computed according to Herzberg
Infrared and Raman Spectra, Chapter V,1, Van Nostrand Reinhold, 1945
Point Group:  C2v, Symmetry Number:   2
Rotational constants in cm-1:    26.310295    14.700776     9.431155

Vibrational entropy computed according to the QRRHO of S. Grimme
Chem.Eur.J. 2012 18 9955 using a reference frequency of 100.0 cm-1

-------
ENTROPY
-------

The entropy contributions are T*S = T*(S(el)+S(vib)+S(rot)+S(trans))
     S(el)   - electronic entropy
     S(vib)  - vibrational entropy
     S(rot)  - rotational entropy
     S(trans)- translational entropy
The entropies will be listed as multiplied by the temperature to get
units of energy

Electronic entropy                ...      0.00000000 Eh      0.00 kcal/mol
Vibrational entropy               ...      0.00000304 Eh      0.00 kcal/mol
Rotational entropy                ...      0.00498432 Eh      3.13 kcal/mol
Translational entropy             ...      0.01644380 Eh     10.32 kcal/mol
-----------------------------------------------------------------------
Final entropy term                ...      0.02143116 Eh     13.45 kcal/mol

In case the symmetry of your molecule has not been determined correctly
or in case you have a reason to use a different symmetry number we print
out the resulting rotational entropy values for sn=1,12:

 non-linear molecules -----------------------------------
|  sn= 1 | S(rot)=       0.00563878 Eh      3.54 kcal/mol|
|  sn= 2 | S(rot)=       0.00498432 Eh      3.13 kcal/mol|
|  sn= 3 | S(rot)=       0.00460149 Eh      2.89 kcal/mol|
|  sn= 4 | S(rot)=       0.00432987 Eh      2.72 kcal/mol|
|  sn= 5 | S(rot)=       0.00411918 Eh      2.58 kcal/mol|
|  sn= 6 | S(rot)=       0.00394704 Eh      2.48 kcal/mol|
|  sn= 7 | S(rot)=       0.00380149 Eh      2.39 kcal/mol|
|  sn= 8 | S(rot)=       0.00367541 Eh      2.31 kcal/mol|
|  sn= 9 | S(rot)=       0.00356420 Eh      2.24 kcal/mol|
|  sn=10 | S(rot)=       0.00346472 Eh      2.17 kcal/mol|
|  sn=11 | S(rot)=       0.00337473 Eh      2.12 kcal/mol|
|  sn=12 | S(rot)=       0.00329258 Eh      2.07 kcal/mol|
 linear molecules ---------------------------------------
|  Dinfh | S(rot)=       0.00320705 Eh      2.01 kcal/mol|
|  Cinfv | S(rot)=       0.00386150 Eh      2.42 kcal/mol|
 --------------------------------------------------------

-------------------
GIBBS FREE ENERGY
-------------------

The Gibbs free energy is G = H - T*S

Total enthalpy                    ...    -76.25108345 Eh
Total entropy correction          ...     -0.02143116 Eh    -13.45 kcal/mol
-----------------------------------------------------------------------
Final Gibbs free energy         ...    -76.27251462 Eh

For completeness - the Gibbs free energy minus the electronic energy
G-E(el)                           ...      0.00393093 Eh      2.47 kcal/mol

                             ****ORCA TERMINATED NORMALLY****
TOTAL RUN TIME: 0 days 0 hours 0 minutes 22 seconds 794 msec
