                         Program Version 6.1.0-f.0  -   RELEASE   -
|  1> # avogadro generated ORCA file
|  2> # C2H4O2 | Geometry Optimization | revPBE/def2-TZVP
|  3> #
|  4> ! GOAT B3LYP def2-SVP pal16
|  5>
|  6> * xyz 0 1
|  7>    H      1.425512   -0.104692    0.759917
|  8>    C      0.919998   -0.195689   -0.199717
|  9>    H      1.243492    0.643840   -0.812276
| 10>    H      1.199341   -1.127655   -0.675648
| 11>    C     -0.564002   -0.152752   -0.007380
| 12>    O     -1.348430   -1.014984   -0.326304
| 13>    O     -0.955416    1.004508    0.588355
| 14>    H     -1.920496    0.947435    0.673043
| 15> *
| 16>
| 17>
| 18>
| 19>                          ****END OF INPUT****
 Total Charge           Charge          ....    0
 Multiplicity           Mult            ....    1
 Number of Electrons    NEL             ....   32
FINAL SINGLE POINT ENERGY      -228.798225954635
FINAL SINGLE POINT ENERGY      -228.798666561805
FINAL SINGLE POINT ENERGY      -228.798679253116
FINAL SINGLE POINT ENERGY      -228.798672418713
FINAL SINGLE POINT ENERGY      -228.798670094250
FINAL SINGLE POINT ENERGY      -228.798679493555
FINAL SINGLE POINT ENERGY      -228.798674370942
FINAL SINGLE POINT ENERGY      -228.798678066724
                    ***********************HURRAY********************

CARTESIAN COORDINATES (ANGSTROEM)
---------------------------------
  H      1.432045   -0.101260    0.771592
  C      0.924300   -0.197598   -0.200956
  H      1.247538    0.653614   -0.820549
  H      1.204706   -1.142319   -0.681514
  C     -0.570209   -0.151445   -0.006217
  O     -1.352379   -1.010536   -0.326269
  O     -0.959152    0.998945    0.587702
  H     -1.926850    0.950609    0.676201

 Multiplicity           Mult            ....    1
 Number of Electrons    NEL             ....   32
 Basis Dimension        Dim             ....   76

ORBITAL ENERGIES
----------------

  NO   OCC          E(Eh)            E(eV)
   0   2.0000     -19.177106      -521.8356
   1   2.0000     -19.119885      -520.2785
   2   2.0000     -10.315831      -280.7080
   3   2.0000     -10.200316      -277.5647
   4   2.0000      -1.093353       -29.7516
   5   2.0000      -1.001048       -27.2399
   6   2.0000      -0.749190       -20.3865
   7   2.0000      -0.606961       -16.5163
   8   2.0000      -0.484432       -13.1821
   9   2.0000      -0.473684       -12.8896
  10   2.0000      -0.468580       -12.7507
  11   2.0000      -0.409507       -11.1432
  12   2.0000      -0.391728       -10.6595
  13   2.0000      -0.390768       -10.6333
  14   2.0000      -0.320309        -8.7161
  15   2.0000      -0.276274        -7.5178
  16   0.0000       0.010087         0.2745
  17   0.0000       0.053433         1.4540
  18   0.0000       0.081043         2.2053
  19   0.0000       0.126815         3.4508
  20   0.0000       0.136517         3.7148

MULLIKEN ATOMIC CHARGES
-----------------------
   0 H :    0.046582
   1 C :    0.022875
   2 H :    0.046599
   3 H :    0.040412
   4 C :    0.076701
   5 O :   -0.218916
   6 O :   -0.192755
   7 H :    0.178501
Sum of atomic charges:   -0.0000000

LOEWDIN ATOMIC CHARGES
----------------------
   0 H :    0.047848
   1 C :   -0.073735
   2 H :    0.047922
   3 H :    0.041373
   4 C :    0.077865
   5 O :   -0.181348
   6 O :   -0.052918
   7 H :    0.092994

  Mayer bond orders larger than 0.100000
B(  0-H ,  1-C ) :   0.9504 B(  1-C ,  2-H ) :   0.9503 B(  1-C ,  3-H ) :   0.9647
B(  1-C ,  4-C ) :   1.0235 B(  4-C ,  5-O ) :   2.1150 B(  4-C ,  6-O ) :   1.2004
B(  6-O ,  7-H ) :   0.9500

FINAL SINGLE POINT ENERGY      -228.798675401341

DIPOLE MOMENT
-------------

Method             : SCF
Type of density    : Electron Density
Multiplicity       :   1
Irrep              :   0
Energy             :  -228.7986754013413702 Eh
Basis              : AO
                                X                 Y                 Z
Electronic contribution:     -3.395448390      -0.094195870       0.347494989
Nuclear contribution   :      3.738514771       0.591733387      -0.148781289
                        -----------------------------------------
Total Dipole Moment    :      0.343066381       0.497537517       0.198713700
                        -----------------------------------------
Magnitude (a.u.)       :      0.636180208
Magnitude (Debye)      :      1.617041580

Rotational constants in cm-1:             0.378951             0.314171             0.177489
Rotational constants in MHz :         11360.679963          9418.613040          5320.981808

                             ****ORCA TERMINATED NORMALLY****
TOTAL RUN TIME: 0 days 1 hours 28 minutes 4 seconds 206 msec
