                         Program Version 4.2.1 -  RELEASE  -
|  1> !B3LYP def2-SVP OPT FREQ
|  2> %pal
|  3> nprocs 16
|  4> end
|  5> * xyz -1 1
|  6>    C        1.33878        0.51508       -0.01708
|  7>    C        1.24526       -0.81240        0.09268
|  8>    N       -0.02415       -1.41966        0.11620
|  9>    C       -1.17237       -0.61743        0.00888
| 10>    N       -1.05625        0.71979       -0.10636
| 11>    C        0.13881        1.36406       -0.11760
| 12>    O       -2.19305       -1.27075        0.03788
| 13>    O        0.23534        2.57757       -0.20466
| 14>    H        2.15069       -1.41636        0.16463
| 15>    H       -1.89431        1.28315       -0.17534
| 16>    H        2.29444        1.03083       -0.03758
| 17> **                         ****END OF INPUT****
 Total Charge           Charge          ....   -1
 Multiplicity           Mult            ....    1
 Number of Electrons    NEL             ....   58
FINAL SINGLE POINT ENERGY      -413.714866119861
FINAL SINGLE POINT ENERGY      -413.740030664904
FINAL SINGLE POINT ENERGY      -413.745881162153
FINAL SINGLE POINT ENERGY      -413.746171297996
FINAL SINGLE POINT ENERGY      -413.746235973182
FINAL SINGLE POINT ENERGY      -413.746248546434
FINAL SINGLE POINT ENERGY      -413.746257291274
FINAL SINGLE POINT ENERGY      -413.746258809937
                    ***********************HURRAY********************

CARTESIAN COORDINATES (ANGSTROEM)
---------------------------------
  C      1.357708    0.575724   -0.019982
  C      1.169529   -0.796569    0.088269
  N      0.012816   -1.463992    0.112098
  C     -1.137586   -0.728374    0.019659
  N     -0.987337    0.674496   -0.092673
  C      0.198487    1.422060   -0.121503
  O     -2.278352   -1.195100    0.027552
  O      0.157268    2.653978   -0.224886
  H      2.071990   -1.429182    0.165269
  H     -1.849786    1.206815   -0.161518
  H      2.348454    1.034025   -0.030636

 Multiplicity           Mult            ....    1
 Number of Electrons    NEL             ....   58
 Basis Dimension        Dim             ....  127

ORBITAL ENERGIES
----------------

  NO   OCC          E(Eh)            E(eV)
   0   2.0000     -18.914187      -514.6812
   1   2.0000     -18.904621      -514.4209
   2   2.0000     -14.181408      -385.8957
   3   2.0000     -14.116306      -384.1242
   4   2.0000     -10.116939      -275.2959
   5   2.0000     -10.106065      -275.0000
   6   2.0000     -10.056904      -273.6623
   7   2.0000      -9.999337      -272.0958
   8   2.0000      -0.850015       -23.1301
   9   2.0000      -0.825294       -22.4574
  10   2.0000      -0.740883       -20.1605
  11   2.0000      -0.692302       -18.8385
  12   2.0000      -0.571861       -15.5611
  13   2.0000      -0.468938       -12.7604
  14   2.0000      -0.436112       -11.8672
  15   2.0000      -0.357430        -9.7262
  16   2.0000      -0.336813        -9.1651
  17   2.0000      -0.287607        -7.8262
  18   2.0000      -0.271187        -7.3794
  19   2.0000      -0.251218        -6.8360
  20   2.0000      -0.233202        -6.3458
  21   2.0000      -0.217049        -5.9062
  22   2.0000      -0.204081        -5.5533
  23   2.0000      -0.149362        -4.0643
  24   2.0000      -0.096002        -2.6123
  25   2.0000      -0.092309        -2.5118
  26   2.0000      -0.080368        -2.1869
  27   2.0000      -0.069346        -1.8870
  28   2.0000      -0.032570        -0.8863
  29   0.0000       0.159346         4.3360
  30   0.0000       0.214535         5.8378
  31   0.0000       0.225408         6.1337
  32   0.0000       0.241798         6.5797
  33   0.0000       0.277659         7.5555

MULLIKEN ATOMIC CHARGES
-----------------------
   0 C :   -0.174828
   1 C :    0.052774
   2 N :   -0.235632
   3 C :    0.080644
   4 N :   -0.137790
   5 C :    0.139868
   6 O :   -0.321697
   7 O :   -0.334025
   8 H :   -0.065544
   9 H :    0.080304
  10 H :   -0.084074
Sum of atomic charges:   -1.0000000

LOEWDIN ATOMIC CHARGES
----------------------
   0 C :   -0.220011
   1 C :    0.006344
   2 N :   -0.241476
   3 C :    0.025958
   4 N :   -0.030311
   5 C :    0.040345
   6 O :   -0.312759
   7 O :   -0.319846
   8 H :   -0.008107
   9 H :    0.060083
  10 H :   -0.000220

  Mayer bond orders larger than 0.100000
B(  0-C ,  1-C ) :   1.4257 B(  0-C ,  5-C ) :   1.1385 B(  0-C , 10-H ) :   0.9611
B(  1-C ,  2-N ) :   1.5330 B(  1-C ,  8-H ) :   0.9569 B(  2-N ,  3-C ) :   1.2785
B(  3-C ,  4-N ) :   1.0256 B(  3-C ,  6-O ) :   2.0288 B(  4-N ,  5-C ) :   1.0751
B(  4-N ,  9-H ) :   0.9043 B(  5-C ,  7-O ) :   2.0195

FINAL SINGLE POINT ENERGY      -413.746259264889

DIPOLE MOMENT
-------------
                                X             Y             Z
Electronic contribution:     -2.50103       0.02861      -0.06984
Nuclear contribution   :      3.04120       0.29601       0.05718
                        -----------------------------------------
Total Dipole Moment    :      0.54017       0.32462      -0.01266
                        -----------------------------------------
Magnitude (a.u.)       :      0.63034
Magnitude (Debye)      :      1.60219

VIBRATIONAL FREQUENCIES
-----------------------

Scaling factor for frequencies =  1.000000000  (already applied!)

   0:         0.00 cm**-1
   1:         0.00 cm**-1
   2:         0.00 cm**-1
   3:         0.00 cm**-1
   4:         0.00 cm**-1
   5:         0.00 cm**-1
   6:       156.86 cm**-1
   7:       192.14 cm**-1
   8:       391.98 cm**-1
   9:       443.94 cm**-1
  10:       523.60 cm**-1
  11:       561.05 cm**-1
  12:       611.79 cm**-1
  13:       700.68 cm**-1
  14:       725.07 cm**-1
  15:       796.95 cm**-1
  16:       802.40 cm**-1
  17:       813.81 cm**-1
  18:       967.25 cm**-1
  19:       991.69 cm**-1
  20:       998.81 cm**-1
  21:      1081.26 cm**-1
  22:      1145.15 cm**-1
  23:      1326.54 cm**-1
  24:      1339.35 cm**-1
  25:      1382.52 cm**-1
  26:      1490.02 cm**-1
  27:      1598.86 cm**-1
  28:      1748.96 cm**-1
  29:      1766.01 cm**-1
  30:      3039.16 cm**-1
  31:      3192.84 cm**-1
  32:      3595.25 cm**-1

IR SPECTRUM
-----------

 Mode    freq (cm**-1)   T**2         TX         TY         TZ
-------------------------------------------------------------------
   6:       156.86    4.416391  ( -0.050820   0.174355   2.093659)
   7:       192.14    2.002038  (  0.038712  -0.113646  -1.409831)
   8:       391.98   10.637347  (  2.927247  -1.423595   0.204819)
   9:       443.94    9.357430  ( -0.095310   0.257901   3.046610)
  10:       523.60    6.243267  (  1.581215   1.931274  -0.114919)
  11:       561.05    3.360108  ( -1.784117   0.411629  -0.087163)
  12:       611.79    3.714234  (  1.899956   0.320704   0.039385)
  13:       700.68   34.088788  (  0.175201  -0.497001  -5.814730)
  14:       725.07   14.598481  (  0.111762  -0.309958  -3.806562)
  15:       796.95   16.543385  (  0.127942  -0.344604  -4.050711)
  16:       802.40    2.138518  (  0.672365  -1.294186   0.107362)
  17:       813.81   58.046458  ( -0.210904   0.616993   7.590869)
  18:       967.25   18.580930  (  3.049903  -3.028439   0.327989)
  19:       991.69    0.166232  (  0.023703  -0.027938  -0.406066)
  20:       998.81   11.037801  (  0.507425  -3.271168   0.282452)
  21:      1081.26    1.126085  (  1.024870   0.275136   0.005052)
  22:      1145.15   13.463497  ( -1.386508   3.382245  -0.318610)
  23:      1326.54   90.775900  ( -2.457446  -9.178910   0.696036)
  24:      1339.35   23.186028  ( -4.332804   2.080143  -0.292982)
  25:      1382.52   11.828938  ( -3.437190  -0.085434  -0.085815)
  26:      1490.02  109.520238  (-10.161505   2.455716  -0.483237)
  27:      1598.86  258.818928  (-11.139417 -11.589149   0.651120)
  28:      1748.96  969.828044  ( 14.649426  27.417333  -1.874084)
  29:      1766.01  430.361234  ( 19.988771  -5.461876   0.989027)
  30:      3039.16  114.814266  ( -8.796226   6.074411  -0.736347)
  31:      3192.84   24.294170  ( -4.580346  -1.820371   0.029192)
  32:      3595.25    7.591234  (  2.338152  -1.445387   0.187445)

--------------------------
THERMOCHEMISTRY AT 298.15K
--------------------------

Temperature         ... 298.15 K
Pressure            ... 1.00 atm
Total Mass          ... 111.08 AMU

Throughout the following assumptions are being made:
  (1) The electronic state is orbitally nondegenerate
  (2) There are no thermally accessible electronically excited states
  (3) Hindered rotations indicated by low frequency modes are not
      treated as such but are treated as vibrations and this may
      cause some error
  (4) All equations used are the standard statistical mechanics
      equations for an ideal gas
  (5) All vibrations are strictly harmonic

freq.     156.86  E(vib)   ...       0.40
freq.     192.14  E(vib)   ...       0.36
freq.     391.98  E(vib)   ...       0.20
freq.     443.94  E(vib)   ...       0.17
freq.     523.60  E(vib)   ...       0.13
freq.     561.05  E(vib)   ...       0.11
freq.     611.79  E(vib)   ...       0.10
freq.     700.68  E(vib)   ...       0.07
freq.     725.07  E(vib)   ...       0.06
freq.     796.95  E(vib)   ...       0.05
freq.     802.40  E(vib)   ...       0.05
freq.     813.81  E(vib)   ...       0.05
freq.     967.25  E(vib)   ...       0.03
freq.     991.69  E(vib)   ...       0.02
freq.     998.81  E(vib)   ...       0.02
freq.    1081.26  E(vib)   ...       0.02
freq.    1145.15  E(vib)   ...       0.01
freq.    1326.54  E(vib)   ...       0.01
freq.    1339.35  E(vib)   ...       0.01
freq.    1382.52  E(vib)   ...       0.01
freq.    1490.02  E(vib)   ...       0.00
freq.    1598.86  E(vib)   ...       0.00
freq.    1748.96  E(vib)   ...       0.00
freq.    1766.01  E(vib)   ...       0.00
freq.    3039.16  E(vib)   ...       0.00
freq.    3192.84  E(vib)   ...       0.00
freq.    3595.25  E(vib)   ...       0.00

------------
INNER ENERGY
------------

The inner energy is: U= E(el) + E(ZPE) + E(vib) + E(rot) + E(trans)
    E(el)   - is the total energy from the electronic structure calculation
              = E(kin-el) + E(nuc-el) + E(el-el) + E(nuc-nuc)
    E(ZPE)  - the the zero temperature vibrational energy from the frequency calculation
    E(vib)  - the the finite temperature correction to E(ZPE) due to population
              of excited vibrational states
    E(rot)  - is the rotational thermal energy
    E(trans)- is the translational thermal energy

Summary of contributions to the inner energy U:
Electronic energy                ...   -413.74625926 Eh
Zero point energy                ...      0.07377607 Eh      46.30 kcal/mol
Thermal vibrational correction   ...      0.00298530 Eh       1.87 kcal/mol
Thermal rotational correction    ...      0.00141627 Eh       0.89 kcal/mol
Thermal translational correction ...      0.00141627 Eh       0.89 kcal/mol
-----------------------------------------------------------------------
Total thermal energy                   -413.66666536 Eh

Summary of corrections to the electronic energy:
(perhaps to be used in another calculation)
Total thermal correction                  0.00581784 Eh       3.65 kcal/mol
Non-thermal (ZPE) correction              0.07377607 Eh      46.30 kcal/mol
-----------------------------------------------------------------------
Total correction                          0.07959391 Eh      49.95 kcal/mol

--------
ENTHALPY
--------

The enthalpy is H = U + kB*T
                kB is Boltzmann's constant
Total free energy                 ...   -413.66666536 Eh
Thermal Enthalpy correction       ...      0.00094421 Eh       0.59 kcal/mol
-----------------------------------------------------------------------
Total Enthalpy                    ...   -413.66572115 Eh

Note: Only C1 symmetry has been detected, increase convergence thresholds
      if your molecule has a higher symmetry. Symmetry factor of 1.0 is
      used for the rotational entropy correction.

Note: Rotational entropy computed according to Herzberg
Infrared and Raman Spectra, Chapter V,1, Van Nostrand Reinhold, 1945
Point Group:  C1, Symmetry Number:   1
Rotational constants in cm-1:     0.132671     0.067730     0.044839

Vibrational entropy computed according to the QRRHO of S. Grimme
Chem.Eur.J. 2012 18 9955

-------
ENTROPY
-------

The entropy contributions are T*S = T*(S(el)+S(vib)+S(rot)+S(trans))
     S(el)   - electronic entropy
     S(vib)  - vibrational entropy
     S(rot)  - rotational entropy
     S(trans)- translational entropy
The entropies will be listed as mutliplied by the temperature to get
units of energy

Electronic entropy                ...      0.00000000 Eh      0.00 kcal/mol
Vibrational entropy               ...      0.00467616 Eh      2.93 kcal/mol
Rotational entropy                ...      0.01320104 Eh      8.28 kcal/mol
Translational entropy             ...      0.01902006 Eh     11.94 kcal/mol
-----------------------------------------------------------------------
Final entropy term                ...      0.03689726 Eh     23.15 kcal/mol

In case the symmetry of your molecule has not been determined correctly
or in case you have a reason to use a different symmetry number we print
out the resulting rotational entropy values for sn=1,12 :
 --------------------------------------------------------
|  sn= 1 | S(rot)=       0.01320104 Eh      8.28 kcal/mol|
|  sn= 2 | S(rot)=       0.01254658 Eh      7.87 kcal/mol|
|  sn= 3 | S(rot)=       0.01216375 Eh      7.63 kcal/mol|
|  sn= 4 | S(rot)=       0.01189212 Eh      7.46 kcal/mol|
|  sn= 5 | S(rot)=       0.01168144 Eh      7.33 kcal/mol|
|  sn= 6 | S(rot)=       0.01150929 Eh      7.22 kcal/mol|
|  sn= 7 | S(rot)=       0.01136374 Eh      7.13 kcal/mol|
|  sn= 8 | S(rot)=       0.01123767 Eh      7.05 kcal/mol|
|  sn= 9 | S(rot)=       0.01112646 Eh      6.98 kcal/mol|
|  sn=10 | S(rot)=       0.01102698 Eh      6.92 kcal/mol|
|  sn=11 | S(rot)=       0.01093699 Eh      6.86 kcal/mol|
|  sn=12 | S(rot)=       0.01085483 Eh      6.81 kcal/mol|
 --------------------------------------------------------

-------------------
GIBBS FREE ENERGY
-------------------

The Gibbs free energy is G = H - T*S

Total enthalpy                    ...   -413.66572115 Eh
Total entropy correction          ...     -0.03689726 Eh    -23.15 kcal/mol
-----------------------------------------------------------------------
Final Gibbs free energy         ...   -413.70261841 Eh

For completeness - the Gibbs free energy minus the electronic energy
G-E(el)                           ...      0.04364085 Eh     27.38 kcal/mol

                             ****ORCA TERMINATED NORMALLY****
TOTAL RUN TIME: 0 days 0 hours 1 minutes 37 seconds 651 msec
