                         Program Version 6.1.0-f.0  -   RELEASE   -
|  1> !B3LYP def2-SVP OPT FREQ pal16
|  2> * xyz -1 1
|  3>    C        1.33878        0.51508       -0.01708
|  4>    C        1.24526       -0.81240        0.09268
|  5>    N       -0.02415       -1.41966        0.11620
|  6>    C       -1.17237       -0.61743        0.00888
|  7>    N       -1.05625        0.71979       -0.10636
|  8>    C        0.13881        1.36406       -0.11760
|  9>    O       -2.19305       -1.27075        0.03788
| 10>    O        0.23534        2.57757       -0.20466
| 11>    H        2.15069       -1.41636        0.16463
| 12>    H       -1.89431        1.28315       -0.17534
| 13>    H        2.29444        1.03083       -0.03758
| 14> **                         ****END OF INPUT****
 Total Charge           Charge          ....   -1
 Multiplicity           Mult            ....    1
 Number of Electrons    NEL             ....   58
FINAL SINGLE POINT ENERGY      -413.715281626531
FINAL SINGLE POINT ENERGY      -413.740447927535
FINAL SINGLE POINT ENERGY      -413.746297449346
FINAL SINGLE POINT ENERGY      -413.746579221233
FINAL SINGLE POINT ENERGY      -413.746645850813
FINAL SINGLE POINT ENERGY      -413.746661312020
FINAL SINGLE POINT ENERGY      -413.746660245152
                    ***********************HURRAY********************

CARTESIAN COORDINATES (ANGSTROEM)
---------------------------------
  C      1.358081    0.575660   -0.020222
  C      1.169489   -0.796491    0.088330
  N      0.012651   -1.463699    0.112017
  C     -1.137860   -0.728507    0.019487
  N     -0.987384    0.674560   -0.093395
  C      0.198602    1.421946   -0.122449
  O     -2.278444   -1.195338    0.027490
  O      0.157143    2.653986   -0.224566
  H      2.072068   -1.429159    0.165777
  H     -1.849862    1.206876   -0.160361
  H      2.348706    1.034045   -0.030459

 Multiplicity           Mult            ....    1
 Number of Electrons    NEL             ....   58
 Basis Dimension        Dim             ....  127

ORBITAL ENERGIES
----------------

  NO   OCC          E(Eh)            E(eV)
   0   2.0000     -18.914630      -514.6933
   1   2.0000     -18.904714      -514.4234
   2   2.0000     -14.181416      -385.8959
   3   2.0000     -14.116118      -384.1191
   4   2.0000     -10.117027      -275.2983
   5   2.0000     -10.106255      -275.0052
   6   2.0000     -10.057033      -273.6658
   7   2.0000      -9.999333      -272.0957
   8   2.0000      -0.850022       -23.1303
   9   2.0000      -0.825336       -22.4585
  10   2.0000      -0.740900       -20.1609
  11   2.0000      -0.692278       -18.8379
  12   2.0000      -0.571844       -15.5607
  13   2.0000      -0.468923       -12.7601
  14   2.0000      -0.436034       -11.8651
  15   2.0000      -0.357413        -9.7257
  16   2.0000      -0.336806        -9.1650
  17   2.0000      -0.287611        -7.8263
  18   2.0000      -0.271230        -7.3805
  19   2.0000      -0.251250        -6.8369
  20   2.0000      -0.233250        -6.3470
  21   2.0000      -0.217099        -5.9076
  22   2.0000      -0.204126        -5.5545
  23   2.0000      -0.149434        -4.0663
  24   2.0000      -0.096109        -2.6153
  25   2.0000      -0.092418        -2.5148
  26   2.0000      -0.080340        -2.1862
  27   2.0000      -0.069454        -1.8899
  28   2.0000      -0.032598        -0.8870
  29   0.0000       0.159256         4.3336
  30   0.0000       0.214572         5.8388
  31   0.0000       0.225697         6.1415
  32   0.0000       0.241717         6.5775
  33   0.0000       0.277332         7.5466

MULLIKEN ATOMIC CHARGES
-----------------------
   0 C :   -0.173787
   1 C :    0.047737
   2 N :   -0.232269
   3 C :    0.080111
   4 N :   -0.136582
   5 C :    0.138117
   6 O :   -0.321003
   7 O :   -0.332956
   8 H :   -0.065289
   9 H :    0.079669
  10 H :   -0.083747
Sum of atomic charges:   -1.0000000

LOEWDIN ATOMIC CHARGES
----------------------
   0 C :   -0.220023
   1 C :    0.005773
   2 N :   -0.240779
   3 C :    0.025883
   4 N :   -0.030481
   5 C :    0.040017
   6 O :   -0.312337
   7 O :   -0.319924
   8 H :   -0.008089
   9 H :    0.059909
  10 H :    0.000051

  Mayer bond orders larger than 0.100000
B(  0-C ,  1-C ) :   1.4260 B(  0-C ,  5-C ) :   1.1392 B(  0-C , 10-H ) :   0.9593
B(  1-C ,  2-N ) :   1.5342 B(  1-C ,  8-H ) :   0.9563 B(  2-N ,  3-C ) :   1.2771
B(  3-C ,  4-N ) :   1.0245 B(  3-C ,  6-O ) :   2.0302 B(  4-N ,  5-C ) :   1.0751
B(  4-N ,  9-H ) :   0.9039 B(  5-C ,  7-O ) :   2.0213

FINAL SINGLE POINT ENERGY      -413.746667228330

DIPOLE MOMENT
-------------

Method             : SCF
Type of density    : Electron Density
Multiplicity       :   1
Irrep              :   0
Energy             :  -413.7466672283299545 Eh
Basis              : AO
                                X                 Y                 Z
Electronic contribution:     -2.501456002       0.024353378      -0.071821338
Nuclear contribution   :      3.041537528       0.296141163       0.059441317
                        -----------------------------------------
Total Dipole Moment    :      0.540081527       0.320494541      -0.012380021
                        -----------------------------------------
Magnitude (a.u.)       :      0.628138576
Magnitude (Debye)      :      1.596601377

VIBRATIONAL FREQUENCIES
-----------------------

Scaling factor for frequencies =  1.000000000  (already applied!)

     0:       0.00 cm**-1
     1:       0.00 cm**-1
     2:       0.00 cm**-1
     3:       0.00 cm**-1
     4:       0.00 cm**-1
     5:       0.00 cm**-1
     6:     156.78 cm**-1
     7:     191.87 cm**-1
     8:     392.19 cm**-1
     9:     443.66 cm**-1
    10:     523.61 cm**-1
    11:     561.24 cm**-1
    12:     611.88 cm**-1
    13:     700.97 cm**-1
    14:     725.48 cm**-1
    15:     796.99 cm**-1
    16:     802.26 cm**-1
    17:     813.82 cm**-1
    18:     967.07 cm**-1
    19:     991.34 cm**-1
    20:     998.82 cm**-1
    21:    1081.82 cm**-1
    22:    1144.70 cm**-1
    23:    1326.51 cm**-1
    24:    1339.69 cm**-1
    25:    1382.67 cm**-1
    26:    1490.04 cm**-1
    27:    1598.79 cm**-1
    28:    1749.14 cm**-1
    29:    1766.50 cm**-1
    30:    3037.05 cm**-1
    31:    3193.85 cm**-1
    32:    3595.04 cm**-1

IR SPECTRUM
-----------

 Mode   freq       eps      Int      T**2         TX        TY        TZ
       cm**-1   L/(mol*cm) km/mol    a.u.
----------------------------------------------------------------------------
  6:    156.78   0.000889    4.49  0.001770  (-0.001140  0.003522  0.041911)
  7:    191.87   0.000379    1.91  0.000616  (-0.000685  0.002043  0.024723)
  8:    392.19   0.002102   10.62  0.001673  ( 0.036712 -0.017858  0.002443)
  9:    443.66   0.001848    9.34  0.001300  ( 0.000964 -0.002982 -0.035919)
 10:    523.61   0.001240    6.27  0.000739  ( 0.017148  0.021063 -0.001240)
 11:    561.24   0.000661    3.34  0.000367  (-0.018630  0.004416 -0.000877)
 12:    611.88   0.000743    3.76  0.000379  ( 0.019180  0.003327  0.000216)
 13:    700.97   0.006801   34.37  0.003028  ( 0.001361 -0.004502 -0.054825)
 14:    725.48   0.002856   14.43  0.001229  (-0.000970  0.002875  0.034919)
 15:    796.99   0.003110   15.72  0.001218  ( 0.000989 -0.002742 -0.034774)
 16:    802.26   0.000421    2.13  0.000164  (-0.005913  0.011339 -0.000390)
 17:    813.82   0.011593   58.59  0.004445  ( 0.001737 -0.005399 -0.066432)
 18:    967.07   0.003657   18.48  0.001180  ( 0.024340 -0.024093  0.002679)
 19:    991.34   0.000030    0.15  0.000009  ( 0.000059 -0.000178 -0.003063)
 20:    998.82   0.002209   11.16  0.000690  ( 0.004177 -0.025839  0.002226)
 21:   1081.82   0.000214    1.08  0.000062  (-0.007563 -0.002116 -0.000047)
 22:   1144.70   0.002633   13.31  0.000718  (-0.010189  0.024671 -0.002326)
 23:   1326.51   0.017960   90.76  0.004225  ( 0.016962  0.062569 -0.004740)
 24:   1339.69   0.004649   23.49  0.001083  (-0.029330  0.014780 -0.002046)
 25:   1382.67   0.002391   12.08  0.000540  ( 0.023219  0.000437  0.000592)
 26:   1490.04   0.021569  109.00  0.004517  (-0.065233  0.015881 -0.003137)
 27:   1598.79   0.051231  258.90  0.010000  ( 0.069288  0.071988 -0.004070)
 28:   1749.14   0.190625  963.34  0.034009  ( 0.084461  0.163552 -0.011242)
 29:   1766.50   0.086329  436.27  0.015251  (-0.120022  0.028531 -0.005581)
 30:   3037.05   0.022827  115.36  0.002346  (-0.039784  0.027414 -0.003355)
 31:   3193.85   0.004698   23.74  0.000459  (-0.019849 -0.008062  0.000114)
 32:   3595.04   0.001516    7.66  0.000132  (-0.009760  0.005977 -0.000757)

--------------------------
THERMOCHEMISTRY AT 298.15K
--------------------------

Temperature         ...   298.15 K
Pressure            ...     1.00 atm
Total Mass          ...   111.08 AMU
Quasi RRHO          ...     True
Cut-Off Frequency   ...     1.00 cm^-1

Throughout the following assumptions are being made:
  (1) The electronic state is orbitally nondegenerate
  (2) There are no thermally accessible electronically excited states
  (3) Hindered rotations indicated by low frequency modes are not
      treated as such but are treated as vibrations and this may
      cause some error
  (4) All equations used are the standard statistical mechanics
      equations for an ideal gas
  (5) All vibrations are strictly harmonic

freq.     156.78  E(vib)   ...       0.40
freq.     191.87  E(vib)   ...       0.36
freq.     392.19  E(vib)   ...       0.20
freq.     443.66  E(vib)   ...       0.17
freq.     523.61  E(vib)   ...       0.13
freq.     561.24  E(vib)   ...       0.11
freq.     611.88  E(vib)   ...       0.10
freq.     700.97  E(vib)   ...       0.07
freq.     725.48  E(vib)   ...       0.06
freq.     796.99  E(vib)   ...       0.05
freq.     802.26  E(vib)   ...       0.05
freq.     813.82  E(vib)   ...       0.05
freq.     967.07  E(vib)   ...       0.03
freq.     991.34  E(vib)   ...       0.02
freq.     998.82  E(vib)   ...       0.02
freq.    1081.82  E(vib)   ...       0.02
freq.    1144.70  E(vib)   ...       0.01
freq.    1326.51  E(vib)   ...       0.01
freq.    1339.69  E(vib)   ...       0.01
freq.    1382.67  E(vib)   ...       0.01
freq.    1490.04  E(vib)   ...       0.00
freq.    1598.79  E(vib)   ...       0.00
freq.    1749.14  E(vib)   ...       0.00
freq.    1766.50  E(vib)   ...       0.00
freq.    3037.05  E(vib)   ...       0.00
freq.    3193.85  E(vib)   ...       0.00
freq.    3595.04  E(vib)   ...       0.00

------------
INNER ENERGY
------------

The inner energy is: U= E(el) + E(ZPE) + E(vib) + E(rot) + E(trans)
    E(el)   - is the total energy from the electronic structure calculation
              = E(kin-el) + E(nuc-el) + E(el-el) + E(nuc-nuc)
    E(ZPE)  - the the zero temperature vibrational energy from the frequency calculation
    E(vib)  - the the finite temperature correction to E(ZPE) due to population
              of excited vibrational states
    E(rot)  - is the rotational thermal energy
    E(trans)- is the translational thermal energy

Summary of contributions to the inner energy U:
Electronic energy                ...   -413.74666723 Eh
Zero point energy                ...      0.07377567 Eh      46.29 kcal/mol
Thermal vibrational correction   ...      0.00298553 Eh       1.87 kcal/mol
Thermal rotational correction    ...      0.00141627 Eh       0.89 kcal/mol
Thermal translational correction ...      0.00141627 Eh       0.89 kcal/mol
-----------------------------------------------------------------------
Total thermal energy                   -413.66707349 Eh

Summary of corrections to the electronic energy:
(perhaps to be used in another calculation)
Total thermal correction                  0.00581807 Eh       3.65 kcal/mol
Non-thermal (ZPE) correction              0.07377567 Eh      46.29 kcal/mol
-----------------------------------------------------------------------
Total correction                          0.07959374 Eh      49.95 kcal/mol

--------
ENTHALPY
--------

The enthalpy is H = U + kB*T
                kB is Boltzmann's constant
Total thermal energy              ...   -413.66707349 Eh
Thermal Enthalpy correction       ...      0.00094421 Eh       0.59 kcal/mol
-----------------------------------------------------------------------
Total Enthalpy                    ...   -413.66612928 Eh

Note: Only C1 symmetry has been detected, increase convergence thresholds
      if your molecule has a higher symmetry. Symmetry factor of 1.0 is
      used for the rotational entropy correction.

Note: Rotational entropy computed according to Herzberg
Infrared and Raman Spectra, Chapter V,1, Van Nostrand Reinhold, 1945
Point Group:  C1, Symmetry Number:   1
Rotational constants in cm-1:     0.132667     0.067725     0.044837

Vibrational entropy computed according to the QRRHO of S. Grimme
Chem.Eur.J. 2012 18 9955 using a reference frequency of 100.0 cm-1

-------
ENTROPY
-------

The entropy contributions are T*S = T*(S(el)+S(vib)+S(rot)+S(trans))
     S(el)   - electronic entropy
     S(vib)  - vibrational entropy
     S(rot)  - rotational entropy
     S(trans)- translational entropy
The entropies will be listed as multiplied by the temperature to get
units of energy

Electronic entropy                ...      0.00000000 Eh      0.00 kcal/mol
Vibrational entropy               ...      0.00467725 Eh      2.94 kcal/mol
Rotational entropy                ...      0.01320112 Eh      8.28 kcal/mol
Translational entropy             ...      0.01902006 Eh     11.94 kcal/mol
-----------------------------------------------------------------------
Final entropy term                ...      0.03689843 Eh     23.15 kcal/mol

In case the symmetry of your molecule has not been determined correctly
or in case you have a reason to use a different symmetry number we print
out the resulting rotational entropy values for sn=1,12:

 non-linear molecules -----------------------------------
|  sn= 1 | S(rot)=       0.01320112 Eh      8.28 kcal/mol|
|  sn= 2 | S(rot)=       0.01254666 Eh      7.87 kcal/mol|
|  sn= 3 | S(rot)=       0.01216383 Eh      7.63 kcal/mol|
|  sn= 4 | S(rot)=       0.01189220 Eh      7.46 kcal/mol|
|  sn= 5 | S(rot)=       0.01168151 Eh      7.33 kcal/mol|
|  sn= 6 | S(rot)=       0.01150937 Eh      7.22 kcal/mol|
|  sn= 7 | S(rot)=       0.01136382 Eh      7.13 kcal/mol|
|  sn= 8 | S(rot)=       0.01123775 Eh      7.05 kcal/mol|
|  sn= 9 | S(rot)=       0.01112654 Eh      6.98 kcal/mol|
|  sn=10 | S(rot)=       0.01102706 Eh      6.92 kcal/mol|
|  sn=11 | S(rot)=       0.01093707 Eh      6.86 kcal/mol|
|  sn=12 | S(rot)=       0.01085491 Eh      6.81 kcal/mol|
 linear molecules ---------------------------------------
|  Dinfh | S(rot)=       0.00825724 Eh      5.18 kcal/mol|
|  Cinfv | S(rot)=       0.00891169 Eh      5.59 kcal/mol|
 --------------------------------------------------------

-------------------
GIBBS FREE ENERGY
-------------------

The Gibbs free energy is G = H - T*S

Total enthalpy                    ...   -413.66612928 Eh
Total entropy correction          ...     -0.03689843 Eh    -23.15 kcal/mol
-----------------------------------------------------------------------
Final Gibbs free energy         ...   -413.70302771 Eh

For completeness - the Gibbs free energy minus the electronic energy
G-E(el)                           ...      0.04363952 Eh     27.38 kcal/mol

                             ****ORCA TERMINATED NORMALLY****
TOTAL RUN TIME: 0 days 0 hours 0 minutes 49 seconds 416 msec
