                         Program Version 4.2.1 -  RELEASE  -
|  1> !B3LYP def2-SVP OPT FREQ CPCM(WATER)
|  2> * xyz 0 1
|  3>    C        1.32473        0.49516       -0.07094
|  4>    C        1.13894       -0.83742        0.03418
|  5>    N       -0.14943       -1.38802        0.10855
|  6>    C       -1.30730       -0.55468        0.07507
|  7>    N       -1.12118        0.84628       -0.03525
|  8>    C        0.18928        1.42125       -0.11192
|  9>    O       -2.42322       -1.05548        0.14114
| 10>    O        0.23983        2.63654       -0.20492
| 11>    H        1.97469       -1.54909        0.06650
| 12>    H       -0.26397       -2.37323        0.18546
| 13>    H       -1.93136        1.43000       -0.05870
| 14>    H        2.32899        0.92869       -0.12920
| 15> *
| 16>
| 17>                          ****END OF INPUT****
 Total Charge           Charge          ....    0
 Multiplicity           Mult            ....    1
 Number of Electrons    NEL             ....   58
FINAL SINGLE POINT ENERGY      -414.318544622592
FINAL SINGLE POINT ENERGY      -414.327005631219
FINAL SINGLE POINT ENERGY      -414.328234292269
FINAL SINGLE POINT ENERGY      -414.328296159514
FINAL SINGLE POINT ENERGY      -414.328311305856
FINAL SINGLE POINT ENERGY      -414.328311972711
FINAL SINGLE POINT ENERGY      -414.328315074285
                    ***********************HURRAY********************

CARTESIAN COORDINATES (ANGSTROEM)
---------------------------------
  C      1.321514    0.518496   -0.072777
  C      1.109175   -0.817930    0.032797
  N     -0.152373   -1.344381    0.103578
  C     -1.303319   -0.575774    0.076278
  N     -1.058010    0.780216   -0.032013
  C      0.185580    1.426809   -0.112240
  O     -2.424404   -1.053547    0.141169
  O      0.240353    2.647240   -0.204710
  H      1.922616   -1.545424    0.067591
  H     -0.283402   -2.349496    0.186263
  H     -1.883441    1.377385   -0.056304
  H      2.325711    0.936406   -0.129663

 Multiplicity           Mult            ....    1
 Number of Electrons    NEL             ....   58
 Basis Dimension        Dim             ....  132

ORBITAL ENERGIES
----------------

  NO   OCC          E(Eh)            E(eV)
   0   2.0000     -19.116432      -520.1846
   1   2.0000     -19.110507      -520.0233
   2   2.0000     -14.388039      -391.5184
   3   2.0000     -14.375849      -391.1867
   4   2.0000     -10.335937      -281.2552
   5   2.0000     -10.302810      -280.3537
   6   2.0000     -10.257087      -279.1095
   7   2.0000     -10.193249      -277.3724
   8   2.0000      -1.064799       -28.9746
   9   2.0000      -1.030723       -28.0474
  10   2.0000      -0.965457       -26.2714
  11   2.0000      -0.912644       -24.8343
  12   2.0000      -0.781748       -21.2724
  13   2.0000      -0.679894       -18.5008
  14   2.0000      -0.655803       -17.8453
  15   2.0000      -0.584259       -15.8985
  16   2.0000      -0.554692       -15.0939
  17   2.0000      -0.508643       -13.8409
  18   2.0000      -0.478750       -13.0275
  19   2.0000      -0.464830       -12.6487
  20   2.0000      -0.448948       -12.2165
  21   2.0000      -0.421964       -11.4822
  22   2.0000      -0.413091       -11.2408
  23   2.0000      -0.407068       -11.0769
  24   2.0000      -0.363077        -9.8798
  25   2.0000      -0.299119        -8.1394
  26   2.0000      -0.288741        -7.8570
  27   2.0000      -0.270484        -7.3602
  28   2.0000      -0.246716        -6.7135
  29   0.0000      -0.037775        -1.0279
  30   0.0000       0.010579         0.2879
  31   0.0000       0.063824         1.7368
  32   0.0000       0.097966         2.6658
  33   0.0000       0.111645         3.0380

MULLIKEN ATOMIC CHARGES
-----------------------
   0 C :   -0.140588
   1 C :    0.146321
   2 N :   -0.090570
   3 C :    0.170585
   4 N :   -0.124050
   5 C :    0.175113
   6 O :   -0.288162
   7 O :   -0.299449
   8 H :    0.068307
   9 H :    0.188023
  10 H :    0.168431
  11 H :    0.026039
Sum of atomic charges:    0.0000000

LOEWDIN ATOMIC CHARGES
----------------------
   0 C :   -0.124926
   1 C :    0.093223
   2 N :    0.049125
   3 C :    0.089270
   4 N :    0.014129
   5 C :    0.076151
   6 O :   -0.273156
   7 O :   -0.270805
   8 H :    0.058683
   9 H :    0.125308
  10 H :    0.113846
  11 H :    0.049151

  Mayer bond orders larger than 0.100000
B(  0-C ,  1-C ) :   1.6290 B(  0-C ,  5-C ) :   1.0800 B(  0-C , 11-H ) :   0.9782
B(  1-C ,  2-N ) :   1.2005 B(  1-C ,  8-H ) :   0.9605 B(  2-N ,  3-C ) :   1.0995
B(  2-N ,  9-H ) :   0.8999 B(  3-C ,  4-N ) :   1.1153 B(  3-C ,  6-O ) :   2.0846
B(  4-N ,  5-C ) :   1.0673 B(  4-N , 10-H ) :   0.8906 B(  5-C ,  7-O ) :   2.0530

FINAL SINGLE POINT ENERGY      -414.328314925520

DIPOLE MOMENT
-------------
                                X             Y             Z
Electronic contribution:     -1.79941       0.30055       0.02210
Nuclear contribution   :      3.06543      -2.22865       0.09218
                        -----------------------------------------
Total Dipole Moment    :      1.26603      -1.92810       0.11428
                        -----------------------------------------
Magnitude (a.u.)       :      2.30943
Magnitude (Debye)      :      5.87009

VIBRATIONAL FREQUENCIES
-----------------------

Scaling factor for frequencies =  1.000000000  (already applied!)

   0:         0.00 cm**-1
   1:         0.00 cm**-1
   2:         0.00 cm**-1
   3:         0.00 cm**-1
   4:         0.00 cm**-1
   5:         0.00 cm**-1
   6:       163.96 cm**-1
   7:       179.43 cm**-1
   8:       394.38 cm**-1
   9:       405.16 cm**-1
  10:       528.65 cm**-1
  11:       553.71 cm**-1
  12:       571.34 cm**-1
  13:       580.37 cm**-1
  14:       654.97 cm**-1
  15:       731.25 cm**-1
  16:       781.73 cm**-1
  17:       784.41 cm**-1
  18:       818.39 cm**-1
  19:       985.77 cm**-1
  20:       986.73 cm**-1
  21:       993.88 cm**-1
  22:      1089.35 cm**-1
  23:      1194.82 cm**-1
  24:      1228.17 cm**-1
  25:      1375.83 cm**-1
  26:      1406.22 cm**-1
  27:      1418.73 cm**-1
  28:      1506.57 cm**-1
  29:      1671.39 cm**-1
  30:      1749.13 cm**-1
  31:      1796.48 cm**-1
  32:      3221.59 cm**-1
  33:      3243.15 cm**-1
  34:      3575.11 cm**-1
  35:      3598.08 cm**-1

IR SPECTRUM
-----------

 Mode    freq (cm**-1)   T**2         TX         TY         TZ
-------------------------------------------------------------------
   6:       163.96    2.846299  (  0.050700   0.102941   1.683191)
   7:       179.43    0.679794  ( -0.014960  -0.028049  -0.823883)
   8:       394.38   39.771629  (  4.771741  -4.120290   0.159159)
   9:       405.16   40.329255  (  0.206162   0.454928   6.330860)
  10:       528.65   38.482752  ( -2.940463  -5.434342   0.551688)
  11:       553.71   13.941786  (  3.724339   0.172188  -0.203558)
  12:       571.34    4.881760  ( -1.898311   1.119773   0.155833)
  13:       580.37   69.347609  (  0.301993   0.798845   8.283614)
  14:       654.97  135.714315  ( -0.313414  -0.846584 -11.614619)
  15:       731.25   18.888260  (  0.165212   0.380059   4.326259)
  16:       781.73   56.171064  ( -0.244183  -0.704094  -7.457593)
  17:       784.41    3.499312  ( -0.865330  -1.480811   0.746802)
  18:       818.39   75.424689  (  0.270920   0.620958   8.658274)
  19:       985.77    6.232441  (  0.869113   2.312507  -0.359716)
  20:       986.73    0.871675  (  0.356438   0.770556   0.388422)
  21:       993.88   11.624959  ( -2.732007   2.038020  -0.087005)
  22:      1089.35   15.724099  ( -2.341278   3.194576  -0.192865)
  23:      1194.82  177.048959  (  5.850847  11.904791  -1.045224)
  24:      1228.17    8.179325  ( -2.614398  -1.147704   0.164391)
  25:      1375.83   24.749998  ( -4.825841   1.208647   0.020738)
  26:      1406.22   59.716907  (  7.030440  -3.207350   0.052152)
  27:      1418.73  130.752832  ( 10.371440  -4.814297   0.092773)
  28:      1506.57  270.044671  ( 15.760870   4.595449  -0.722154)
  29:      1671.39  228.199896  (  2.181069  14.903340  -1.154682)
  30:      1749.13  1587.711830  (-15.260845 -36.673718   3.139561)
  31:      1796.48  763.491950  ( 27.599566   1.055916  -0.800587)
  32:      3221.59    1.458185  (  0.766169   0.927700  -0.102676)
  33:      3243.15    1.891983  ( -1.342940  -0.293671   0.047445)
  34:      3575.11  135.509578  ( -9.058524   7.303840  -0.326571)
  35:      3598.08  234.071967  (  1.047442  15.215060  -1.215231)

--------------------------
THERMOCHEMISTRY AT 298.15K
--------------------------

Temperature         ... 298.15 K
Pressure            ... 1.00 atm
Total Mass          ... 112.09 AMU

Throughout the following assumptions are being made:
  (1) The electronic state is orbitally nondegenerate
  (2) There are no thermally accessible electronically excited states
  (3) Hindered rotations indicated by low frequency modes are not
      treated as such but are treated as vibrations and this may
      cause some error
  (4) All equations used are the standard statistical mechanics
      equations for an ideal gas
  (5) All vibrations are strictly harmonic

freq.     163.96  E(vib)   ...       0.39
freq.     179.43  E(vib)   ...       0.37
freq.     394.38  E(vib)   ...       0.20
freq.     405.16  E(vib)   ...       0.19
freq.     528.65  E(vib)   ...       0.13
freq.     553.71  E(vib)   ...       0.12
freq.     571.34  E(vib)   ...       0.11
freq.     580.37  E(vib)   ...       0.11
freq.     654.97  E(vib)   ...       0.08
freq.     731.25  E(vib)   ...       0.06
freq.     781.73  E(vib)   ...       0.05
freq.     784.41  E(vib)   ...       0.05
freq.     818.39  E(vib)   ...       0.05
freq.     985.77  E(vib)   ...       0.02
freq.     986.73  E(vib)   ...       0.02
freq.     993.88  E(vib)   ...       0.02
freq.    1089.35  E(vib)   ...       0.02
freq.    1194.82  E(vib)   ...       0.01
freq.    1228.17  E(vib)   ...       0.01
freq.    1375.83  E(vib)   ...       0.01
freq.    1406.22  E(vib)   ...       0.00
freq.    1418.73  E(vib)   ...       0.00
freq.    1506.57  E(vib)   ...       0.00
freq.    1671.39  E(vib)   ...       0.00
freq.    1749.13  E(vib)   ...       0.00
freq.    1796.48  E(vib)   ...       0.00
freq.    3221.59  E(vib)   ...       0.00
freq.    3243.15  E(vib)   ...       0.00
freq.    3575.11  E(vib)   ...       0.00
freq.    3598.08  E(vib)   ...       0.00

------------
INNER ENERGY
------------

The inner energy is: U= E(el) + E(ZPE) + E(vib) + E(rot) + E(trans)
    E(el)   - is the total energy from the electronic structure calculation
              = E(kin-el) + E(nuc-el) + E(el-el) + E(nuc-nuc)
    E(ZPE)  - the the zero temperature vibrational energy from the frequency calculation
    E(vib)  - the the finite temperature correction to E(ZPE) due to population
              of excited vibrational states
    E(rot)  - is the rotational thermal energy
    E(trans)- is the translational thermal energy

Summary of contributions to the inner energy U:
Electronic energy                ...   -414.32831493 Eh
Zero point energy                ...      0.08700040 Eh      54.59 kcal/mol
Thermal vibrational correction   ...      0.00325023 Eh       2.04 kcal/mol
Thermal rotational correction    ...      0.00141627 Eh       0.89 kcal/mol
Thermal translational correction ...      0.00141627 Eh       0.89 kcal/mol
-----------------------------------------------------------------------
Total thermal energy                   -414.23523175 Eh

Summary of corrections to the electronic energy:
(perhaps to be used in another calculation)
Total thermal correction                  0.00608277 Eh       3.82 kcal/mol
Non-thermal (ZPE) correction              0.08700040 Eh      54.59 kcal/mol
-----------------------------------------------------------------------
Total correction                          0.09308318 Eh      58.41 kcal/mol

--------
ENTHALPY
--------

The enthalpy is H = U + kB*T
                kB is Boltzmann's constant
Total free energy                 ...   -414.23523175 Eh
Thermal Enthalpy correction       ...      0.00094421 Eh       0.59 kcal/mol
-----------------------------------------------------------------------
Total Enthalpy                    ...   -414.23428754 Eh

Note: Only C1 symmetry has been detected, increase convergence thresholds
      if your molecule has a higher symmetry. Symmetry factor of 1.0 is
      used for the rotational entropy correction.

Note: Rotational entropy computed according to Herzberg
Infrared and Raman Spectra, Chapter V,1, Van Nostrand Reinhold, 1945
Point Group:  C1, Symmetry Number:   1
Rotational constants in cm-1:     0.129181     0.067251     0.044227

Vibrational entropy computed according to the QRRHO of S. Grimme
Chem.Eur.J. 2012 18 9955

-------
ENTROPY
-------

The entropy contributions are T*S = T*(S(el)+S(vib)+S(rot)+S(trans))
     S(el)   - electronic entropy
     S(vib)  - vibrational entropy
     S(rot)  - rotational entropy
     S(trans)- translational entropy
The entropies will be listed as mutliplied by the temperature to get
units of energy

Electronic entropy                ...      0.00000000 Eh      0.00 kcal/mol
Vibrational entropy               ...      0.00506104 Eh      3.18 kcal/mol
Rotational entropy                ...      0.01322346 Eh      8.30 kcal/mol
Translational entropy             ...      0.01903286 Eh     11.94 kcal/mol
-----------------------------------------------------------------------
Final entropy term                ...      0.03731736 Eh     23.42 kcal/mol

In case the symmetry of your molecule has not been determined correctly
or in case you have a reason to use a different symmetry number we print
out the resulting rotational entropy values for sn=1,12 :
 --------------------------------------------------------
|  sn= 1 | S(rot)=       0.01322346 Eh      8.30 kcal/mol|
|  sn= 2 | S(rot)=       0.01256901 Eh      7.89 kcal/mol|
|  sn= 3 | S(rot)=       0.01218617 Eh      7.65 kcal/mol|
|  sn= 4 | S(rot)=       0.01191455 Eh      7.48 kcal/mol|
|  sn= 5 | S(rot)=       0.01170386 Eh      7.34 kcal/mol|
|  sn= 6 | S(rot)=       0.01153172 Eh      7.24 kcal/mol|
|  sn= 7 | S(rot)=       0.01138617 Eh      7.14 kcal/mol|
|  sn= 8 | S(rot)=       0.01126009 Eh      7.07 kcal/mol|
|  sn= 9 | S(rot)=       0.01114888 Eh      7.00 kcal/mol|
|  sn=10 | S(rot)=       0.01104940 Eh      6.93 kcal/mol|
|  sn=11 | S(rot)=       0.01095941 Eh      6.88 kcal/mol|
|  sn=12 | S(rot)=       0.01087726 Eh      6.83 kcal/mol|
 --------------------------------------------------------

-------------------
GIBBS FREE ENERGY
-------------------

The Gibbs free energy is G = H - T*S

Total enthalpy                    ...   -414.23428754 Eh
Total entropy correction          ...     -0.03731736 Eh    -23.42 kcal/mol
-----------------------------------------------------------------------
Final Gibbs free energy         ...   -414.27160490 Eh

For completeness - the Gibbs free energy minus the electronic energy
G-E(el)                           ...      0.05671003 Eh     35.59 kcal/mol

                             ****ORCA TERMINATED NORMALLY****
TOTAL RUN TIME: 0 days 0 hours 16 minutes 13 seconds 210 msec
