                         Program Version 4.2.1 -  RELEASE  -
|  1> !B3LYP def2-SVP OPT FREQ CPCM(water)
|  2> %pal
|  3> nprocs 16
|  4> end
|  5> * xyz 1 1
|  6>    C        1.39943        0.51664       -0.05843
|  7>    C        1.16131       -0.78457        0.16422
|  8>    N       -0.10300       -1.27620        0.36247
|  9>    C       -1.16293       -0.43280        0.32977
| 10>    N       -1.00304        0.89353        0.10956
| 11>    C        0.23600        1.45365       -0.09250
| 12>    O       -2.43331       -0.86996        0.51881
| 13>    O        0.40342        2.65219       -0.29244
| 14>    H        1.95781       -1.52043        0.19988
| 15>    H       -0.23682       -2.26702        0.50621
| 16>    H        2.38347        0.93296       -0.21707
| 17>    H       -1.81105        1.49705        0.09205
| 18>    H       -2.45285       -1.82287        0.69010
| 19> *
| 20>
| 21>
| 22>                          ****END OF INPUT****
 Total Charge           Charge          ....    1
 Multiplicity           Mult            ....    1
 Number of Electrons    NEL             ....   58
FINAL SINGLE POINT ENERGY      -414.737720828509
FINAL SINGLE POINT ENERGY      -414.745336036083
FINAL SINGLE POINT ENERGY      -414.746886043405
FINAL SINGLE POINT ENERGY      -414.747183664200
FINAL SINGLE POINT ENERGY      -414.747239655307
FINAL SINGLE POINT ENERGY      -414.747248815630
FINAL SINGLE POINT ENERGY      -414.747253646465
                    ***********************HURRAY********************

CARTESIAN COORDINATES (ANGSTROEM)
---------------------------------
  C      1.393781    0.533776   -0.062691
  C      1.168148   -0.779758    0.160441
  N     -0.116197   -1.262094    0.357179
  C     -1.173993   -0.446979    0.334824
  N     -0.982141    0.854104    0.116669
  C      0.285100    1.476626   -0.101181
  O     -2.392774   -0.849779    0.515859
  O      0.338858    2.672655   -0.290012
  H      1.953348   -1.535224    0.201378
  H     -0.254993   -2.258813    0.525028
  H      2.401547    0.916834   -0.219517
  H     -1.805505    1.460126    0.102516
  H     -2.476740   -1.809302    0.672136

 Multiplicity           Mult            ....    1
 Number of Electrons    NEL             ....   58
 Basis Dimension        Dim             ....  137

ORBITAL ENERGIES
----------------

  NO   OCC          E(Eh)            E(eV)
   0   2.0000     -19.243089      -523.6311
   1   2.0000     -19.141945      -520.8788
   2   2.0000     -14.441646      -392.9772
   3   2.0000     -14.426591      -392.5675
   4   2.0000     -10.407739      -283.2090
   5   2.0000     -10.335936      -281.2551
   6   2.0000     -10.284623      -279.8588
   7   2.0000     -10.225922      -278.2615
   8   2.0000      -1.162894       -31.6440
   9   2.0000      -1.073835       -29.2205
  10   2.0000      -1.033318       -28.1180
  11   2.0000      -0.967573       -26.3290
  12   2.0000      -0.824230       -22.4284
  13   2.0000      -0.730126       -19.8677
  14   2.0000      -0.721702       -19.6385
  15   2.0000      -0.654811       -17.8183
  16   2.0000      -0.606291       -16.4980
  17   2.0000      -0.596917       -16.2429
  18   2.0000      -0.546591       -14.8735
  19   2.0000      -0.537006       -14.6127
  20   2.0000      -0.493597       -13.4315
  21   2.0000      -0.467885       -12.7318
  22   2.0000      -0.451790       -12.2938
  23   2.0000      -0.448086       -12.1930
  24   2.0000      -0.435508       -11.8508
  25   2.0000      -0.412282       -11.2188
  26   2.0000      -0.349591        -9.5128
  27   2.0000      -0.304086        -8.2746
  28   2.0000      -0.287045        -7.8109
  29   0.0000      -0.071350        -1.9415
  30   0.0000      -0.047607        -1.2955
  31   0.0000       0.030472         0.8292
  32   0.0000       0.061024         1.6605
  33   0.0000       0.082042         2.2325

MULLIKEN ATOMIC CHARGES
-----------------------
   0 C :   -0.093210
   1 C :    0.168644
   2 N :   -0.037726
   3 C :    0.262459
   4 N :   -0.077092
   5 C :    0.210326
   6 O :   -0.079860
   7 O :   -0.231883
   8 H :    0.096236
   9 H :    0.228642
  10 H :    0.062397
  11 H :    0.213079
  12 H :    0.277990
Sum of atomic charges:    1.0000000

LOEWDIN ATOMIC CHARGES
----------------------
   0 C :   -0.063862
   1 C :    0.117376
   2 N :    0.105491
   3 C :    0.196820
   4 N :    0.077741
   5 C :    0.100214
   6 O :    0.061533
   7 O :   -0.204221
   8 H :    0.073632
   9 H :    0.154968
  10 H :    0.068266
  11 H :    0.144168
  12 H :    0.167873

  Mayer bond orders larger than 0.100000
B(  0-C ,  1-C ) :   1.6758 B(  0-C ,  5-C ) :   1.0757 B(  0-C , 10-H ) :   0.9755
B(  1-C ,  2-N ) :   1.1321 B(  1-C ,  8-H ) :   0.9586 B(  2-N ,  3-C ) :   1.3102
B(  2-N ,  9-H ) :   0.8800 B(  3-C ,  4-N ) :   1.3260 B(  3-C ,  6-O ) :   1.4393
B(  4-N ,  5-C ) :   0.9938 B(  4-N , 11-H ) :   0.8733 B(  5-C ,  7-O ) :   2.1150
B(  6-O , 12-H ) :   0.8980

FINAL SINGLE POINT ENERGY      -414.747250176466

DIPOLE MOMENT
-------------
                                X             Y             Z
Electronic contribution:     -1.93230       0.18326       0.15730
Nuclear contribution   :      0.97788      -4.24096       0.55886
                        -----------------------------------------
Total Dipole Moment    :     -0.95442      -4.05769       0.71616
                        -----------------------------------------
Magnitude (a.u.)       :      4.22950
Magnitude (Debye)      :     10.75054

VIBRATIONAL FREQUENCIES
-----------------------

Scaling factor for frequencies =  1.000000000  (already applied!)

   0:         0.00 cm**-1
   1:         0.00 cm**-1
   2:         0.00 cm**-1
   3:         0.00 cm**-1
   4:         0.00 cm**-1
   5:         0.00 cm**-1
   6:       111.97 cm**-1
   7:       150.66 cm**-1
   8:       227.88 cm**-1
   9:       371.37 cm**-1
  10:       409.63 cm**-1
  11:       533.87 cm**-1
  12:       542.27 cm**-1
  13:       542.90 cm**-1
  14:       562.71 cm**-1
  15:       657.70 cm**-1
  16:       708.78 cm**-1
  17:       767.88 cm**-1
  18:       779.44 cm**-1
  19:       831.22 cm**-1
  20:       964.24 cm**-1
  21:       983.93 cm**-1
  22:      1033.86 cm**-1
  23:      1085.17 cm**-1
  24:      1163.21 cm**-1
  25:      1214.40 cm**-1
  26:      1224.35 cm**-1
  27:      1372.77 cm**-1
  28:      1395.25 cm**-1
  29:      1461.61 cm**-1
  30:      1580.03 cm**-1
  31:      1685.47 cm**-1
  32:      1711.95 cm**-1
  33:      1810.03 cm**-1
  34:      3241.96 cm**-1
  35:      3252.52 cm**-1
  36:      3539.30 cm**-1
  37:      3554.08 cm**-1
  38:      3714.14 cm**-1

IR SPECTRUM
-----------

 Mode    freq (cm**-1)   T**2         TX         TY         TZ
-------------------------------------------------------------------
   6:       111.97   86.545732  ( -0.925325  -1.376675  -9.153921)
   7:       150.66    8.584366  ( -0.328468  -0.413147  -2.881976)
   8:       227.88   66.395001  ( -0.799761  -1.170606  -8.024031)
   9:       371.37    7.762783  ( -0.668765   2.683916  -0.334861)
  10:       409.63    8.617416  (  0.323275   0.401221   2.889971)
  11:       533.87   42.198970  ( -4.812444  -4.053889   1.614105)
  12:       542.27   22.752180  (  4.190854  -1.409300  -1.789637)
  13:       542.90  178.235063  (  1.993471   2.221556  13.012526)
  14:       562.71    1.088886  ( -0.475398   0.025237  -0.928572)
  15:       657.70  127.593549  (  1.183031   1.739672  11.098087)
  16:       708.78    7.888213  ( -0.309673  -0.456632  -2.753870)
  17:       767.88   39.885467  ( -0.532282  -0.906398  -6.227406)
  18:       779.44   12.738003  (  2.381737   2.591904  -0.589375)
  19:       831.22   74.305342  (  0.891711   1.277139   8.478155)
  20:       964.24   14.206173  ( -2.590607   2.733221  -0.156312)
  21:       983.93    0.070555  ( -0.012148   0.009490   0.265175)
  22:      1033.86   50.287630  ( -3.922392  -5.769403   1.271400)
  23:      1085.17   15.650165  (  3.927943  -0.366871  -0.294675)
  24:      1163.21  323.238781  (-16.074378  -7.574309   2.735505)
  25:      1214.40   12.130118  ( -0.135074   3.439672  -0.529653)
  26:      1224.35   61.015992  (  3.617326   6.777986  -1.410624)
  27:      1372.77    3.388587  ( -1.806663  -0.281737   0.212559)
  28:      1395.25   29.930646  (  4.787428   2.500310  -0.871566)
  29:      1461.61    9.375276  (  0.918732  -2.892339   0.406920)
  30:      1580.03  357.452582  ( 18.731005   1.509932  -2.078973)
  31:      1685.47  879.874935  (-25.388644 -14.606157   4.685284)
  32:      1711.95  297.743998  ( -1.778672  16.996269  -2.388967)
  33:      1810.03  920.768986  (  1.925773 -29.959339   4.415697)
  34:      3241.96   10.568834  ( -1.477934  -2.831934   0.603899)
  35:      3252.52   13.018702  ( -3.404508   1.183921   0.162347)
  36:      3539.30  310.559264  (-12.063279  12.820004  -0.827084)
  37:      3554.08  256.585649  (  1.333500  15.755298  -2.564761)
  38:      3714.14  488.211982  ( -9.830525 -19.389385   3.952786)

--------------------------
THERMOCHEMISTRY AT 298.15K
--------------------------

Temperature         ... 298.15 K
Pressure            ... 1.00 atm
Total Mass          ... 113.10 AMU

Throughout the following assumptions are being made:
  (1) The electronic state is orbitally nondegenerate
  (2) There are no thermally accessible electronically excited states
  (3) Hindered rotations indicated by low frequency modes are not
      treated as such but are treated as vibrations and this may
      cause some error
  (4) All equations used are the standard statistical mechanics
      equations for an ideal gas
  (5) All vibrations are strictly harmonic

freq.     111.97  E(vib)   ...       0.45
freq.     150.66  E(vib)   ...       0.40
freq.     227.88  E(vib)   ...       0.33
freq.     371.37  E(vib)   ...       0.21
freq.     409.63  E(vib)   ...       0.19
freq.     533.87  E(vib)   ...       0.13
freq.     542.27  E(vib)   ...       0.12
freq.     542.90  E(vib)   ...       0.12
freq.     562.71  E(vib)   ...       0.11
freq.     657.70  E(vib)   ...       0.08
freq.     708.78  E(vib)   ...       0.07
freq.     767.88  E(vib)   ...       0.06
freq.     779.44  E(vib)   ...       0.05
freq.     831.22  E(vib)   ...       0.04
freq.     964.24  E(vib)   ...       0.03
freq.     983.93  E(vib)   ...       0.02
freq.    1033.86  E(vib)   ...       0.02
freq.    1085.17  E(vib)   ...       0.02
freq.    1163.21  E(vib)   ...       0.01
freq.    1214.40  E(vib)   ...       0.01
freq.    1224.35  E(vib)   ...       0.01
freq.    1372.77  E(vib)   ...       0.01
freq.    1395.25  E(vib)   ...       0.00
freq.    1461.61  E(vib)   ...       0.00
freq.    1580.03  E(vib)   ...       0.00
freq.    1685.47  E(vib)   ...       0.00
freq.    1711.95  E(vib)   ...       0.00
freq.    1810.03  E(vib)   ...       0.00
freq.    3241.96  E(vib)   ...       0.00
freq.    3252.52  E(vib)   ...       0.00
freq.    3539.30  E(vib)   ...       0.00
freq.    3554.08  E(vib)   ...       0.00
freq.    3714.14  E(vib)   ...       0.00

------------
INNER ENERGY
------------

The inner energy is: U= E(el) + E(ZPE) + E(vib) + E(rot) + E(trans)
    E(el)   - is the total energy from the electronic structure calculation
              = E(kin-el) + E(nuc-el) + E(el-el) + E(nuc-nuc)
    E(ZPE)  - the the zero temperature vibrational energy from the frequency calculation
    E(vib)  - the the finite temperature correction to E(ZPE) due to population
              of excited vibrational states
    E(rot)  - is the rotational thermal energy
    E(trans)- is the translational thermal energy

Summary of contributions to the inner energy U:
Electronic energy                ...   -414.74725018 Eh
Zero point energy                ...      0.09838621 Eh      61.74 kcal/mol
Thermal vibrational correction   ...      0.00398599 Eh       2.50 kcal/mol
Thermal rotational correction    ...      0.00141627 Eh       0.89 kcal/mol
Thermal translational correction ...      0.00141627 Eh       0.89 kcal/mol
-----------------------------------------------------------------------
Total thermal energy                   -414.64204544 Eh

Summary of corrections to the electronic energy:
(perhaps to be used in another calculation)
Total thermal correction                  0.00681853 Eh       4.28 kcal/mol
Non-thermal (ZPE) correction              0.09838621 Eh      61.74 kcal/mol
-----------------------------------------------------------------------
Total correction                          0.10520474 Eh      66.02 kcal/mol

--------
ENTHALPY
--------

The enthalpy is H = U + kB*T
                kB is Boltzmann's constant
Total free energy                 ...   -414.64204544 Eh
Thermal Enthalpy correction       ...      0.00094421 Eh       0.59 kcal/mol
-----------------------------------------------------------------------
Total Enthalpy                    ...   -414.64110123 Eh

Note: Only C1 symmetry has been detected, increase convergence thresholds
      if your molecule has a higher symmetry. Symmetry factor of 1.0 is
      used for the rotational entropy correction.

Note: Rotational entropy computed according to Herzberg
Infrared and Raman Spectra, Chapter V,1, Van Nostrand Reinhold, 1945
Point Group:  C1, Symmetry Number:   1
Rotational constants in cm-1:     0.126958     0.065965     0.043410

Vibrational entropy computed according to the QRRHO of S. Grimme
Chem.Eur.J. 2012 18 9955

-------
ENTROPY
-------

The entropy contributions are T*S = T*(S(el)+S(vib)+S(rot)+S(trans))
     S(el)   - electronic entropy
     S(vib)  - vibrational entropy
     S(rot)  - rotational entropy
     S(trans)- translational entropy
The entropies will be listed as mutliplied by the temperature to get
units of energy

Electronic entropy                ...      0.00000000 Eh      0.00 kcal/mol
Vibrational entropy               ...      0.00648723 Eh      4.07 kcal/mol
Rotational entropy                ...      0.01324958 Eh      8.31 kcal/mol
Translational entropy             ...      0.01904554 Eh     11.95 kcal/mol
-----------------------------------------------------------------------
Final entropy term                ...      0.03878235 Eh     24.34 kcal/mol

In case the symmetry of your molecule has not been determined correctly
or in case you have a reason to use a different symmetry number we print
out the resulting rotational entropy values for sn=1,12 :
 --------------------------------------------------------
|  sn= 1 | S(rot)=       0.01324958 Eh      8.31 kcal/mol|
|  sn= 2 | S(rot)=       0.01259513 Eh      7.90 kcal/mol|
|  sn= 3 | S(rot)=       0.01221229 Eh      7.66 kcal/mol|
|  sn= 4 | S(rot)=       0.01194067 Eh      7.49 kcal/mol|
|  sn= 5 | S(rot)=       0.01172998 Eh      7.36 kcal/mol|
|  sn= 6 | S(rot)=       0.01155784 Eh      7.25 kcal/mol|
|  sn= 7 | S(rot)=       0.01141229 Eh      7.16 kcal/mol|
|  sn= 8 | S(rot)=       0.01128621 Eh      7.08 kcal/mol|
|  sn= 9 | S(rot)=       0.01117500 Eh      7.01 kcal/mol|
|  sn=10 | S(rot)=       0.01107553 Eh      6.95 kcal/mol|
|  sn=11 | S(rot)=       0.01098554 Eh      6.89 kcal/mol|
|  sn=12 | S(rot)=       0.01090338 Eh      6.84 kcal/mol|
 --------------------------------------------------------

-------------------
GIBBS FREE ENERGY
-------------------

The Gibbs free energy is G = H - T*S

Total enthalpy                    ...   -414.64110123 Eh
Total entropy correction          ...     -0.03878235 Eh    -24.34 kcal/mol
-----------------------------------------------------------------------
Final Gibbs free energy         ...   -414.67988359 Eh

For completeness - the Gibbs free energy minus the electronic energy
G-E(el)                           ...      0.06736659 Eh     42.27 kcal/mol

                             ****ORCA TERMINATED NORMALLY****
TOTAL RUN TIME: 0 days 0 hours 2 minutes 9 seconds 587 msec
