                         Program Version 6.1.0-f.0  -   RELEASE   -
|  1> !B3LYP def2-SVP OPT FREQ CPCM(water) pal16
|  2> * xyz 1 1
|  3>    C        1.39943        0.51664       -0.05843
|  4>    C        1.16131       -0.78457        0.16422
|  5>    N       -0.10300       -1.27620        0.36247
|  6>    C       -1.16293       -0.43280        0.32977
|  7>    N       -1.00304        0.89353        0.10956
|  8>    C        0.23600        1.45365       -0.09250
|  9>    O       -2.43331       -0.86996        0.51881
| 10>    O        0.40342        2.65219       -0.29244
| 11>    H        1.95781       -1.52043        0.19988
| 12>    H       -0.23682       -2.26702        0.50621
| 13>    H        2.38347        0.93296       -0.21707
| 14>    H       -1.81105        1.49705        0.09205
| 15>    H       -2.45285       -1.82287        0.69010
| 16> *
| 17>
| 18>
| 19>                          ****END OF INPUT****
 Total Charge           Charge          ....    1
 Multiplicity           Mult            ....    1
 Number of Electrons    NEL             ....   58
FINAL SINGLE POINT ENERGY      -414.736313655886
FINAL SINGLE POINT ENERGY      -414.744383958357
FINAL SINGLE POINT ENERGY      -414.746180973982
FINAL SINGLE POINT ENERGY      -414.746435238148
FINAL SINGLE POINT ENERGY      -414.746478742144
FINAL SINGLE POINT ENERGY      -414.746489435810
FINAL SINGLE POINT ENERGY      -414.746493764114
                    ***********************HURRAY********************

CARTESIAN COORDINATES (ANGSTROEM)
---------------------------------
  C      1.395752    0.535501   -0.059414
  C      1.169808   -0.778265    0.159856
  N     -0.115316   -1.264344    0.351202
  C     -1.175563   -0.450375    0.330122
  N     -0.982890    0.851417    0.110256
  C      0.285575    1.477458   -0.103063
  O     -2.396915   -0.848902    0.512010
  O      0.339225    2.672565   -0.291116
  H      1.955861   -1.533396    0.202745
  H     -0.246433   -2.265478    0.506561
  H      2.404661    0.919531   -0.207893
  H     -1.805696    1.459628    0.100271
  H     -2.489631   -1.803170    0.701094

 Multiplicity           Mult            ....    1
 Number of Electrons    NEL             ....   58
 Basis Dimension        Dim             ....  137

ORBITAL ENERGIES
----------------

  NO   OCC          E(Eh)            E(eV)
   0   2.0000     -19.243610      -523.6453
   1   2.0000     -19.141937      -520.8786
   2   2.0000     -14.442082      -392.9890
   3   2.0000     -14.426753      -392.5719
   4   2.0000     -10.408806      -283.2380
   5   2.0000     -10.335787      -281.2511
   6   2.0000     -10.285246      -279.8758
   7   2.0000     -10.226678      -278.2821
   8   2.0000      -1.162160       -31.6240
   9   2.0000      -1.073620       -29.2147
  10   2.0000      -1.033237       -28.1158
  11   2.0000      -0.967009       -26.3137
  12   2.0000      -0.824551       -22.4372
  13   2.0000      -0.730441       -19.8763
  14   2.0000      -0.721373       -19.6296
  15   2.0000      -0.654944       -17.8219
  16   2.0000      -0.606233       -16.4964
  17   2.0000      -0.596883       -16.2420
  18   2.0000      -0.546343       -14.8668
  19   2.0000      -0.537087       -14.6149
  20   2.0000      -0.493584       -13.4311
  21   2.0000      -0.467300       -12.7159
  22   2.0000      -0.451615       -12.2891
  23   2.0000      -0.448080       -12.1929
  24   2.0000      -0.435726       -11.8567
  25   2.0000      -0.412711       -11.2305
  26   2.0000      -0.349879        -9.5207
  27   2.0000      -0.303534        -8.2596
  28   2.0000      -0.287439        -7.8216
  29   0.0000      -0.071953        -1.9579
  30   0.0000      -0.048266        -1.3134
  31   0.0000       0.030727         0.8361
  32   0.0000       0.058915         1.6032
  33   0.0000       0.081192         2.2093

MULLIKEN ATOMIC CHARGES
-----------------------
   0 C :   -0.091606
   1 C :    0.165156
   2 N :   -0.040196
   3 C :    0.265317
   4 N :   -0.079418
   5 C :    0.205834
   6 O :   -0.083614
   7 O :   -0.220456
   8 H :    0.094078
   9 H :    0.230384
  10 H :    0.062054
  11 H :    0.212929
  12 H :    0.279538
Sum of atomic charges:    1.0000000

LOEWDIN ATOMIC CHARGES
----------------------
   0 C :   -0.063675
   1 C :    0.115160
   2 N :    0.103864
   3 C :    0.197300
   4 N :    0.075572
   5 C :    0.098539
   6 O :    0.059107
   7 O :   -0.195896
   8 H :    0.072566
   9 H :    0.156137
  10 H :    0.068019
  11 H :    0.144137
  12 H :    0.169170

  Mayer bond orders larger than 0.100000
B(  0-C ,  1-C ) :   1.6798 B(  0-C ,  5-C ) :   1.0735 B(  0-C , 10-H ) :   0.9739
B(  1-C ,  2-N ) :   1.1308 B(  1-C ,  8-H ) :   0.9583 B(  2-N ,  3-C ) :   1.3076
B(  2-N ,  9-H ) :   0.8804 B(  3-C ,  4-N ) :   1.3260 B(  3-C ,  6-O ) :   1.4384
B(  4-N ,  5-C ) :   0.9886 B(  4-N , 11-H ) :   0.8732 B(  5-C ,  7-O ) :   2.1257
B(  6-O , 12-H ) :   0.8974

FINAL SINGLE POINT ENERGY      -414.746495087989

DIPOLE MOMENT
-------------

Method             : SCF
Type of density    : Electron Density
Multiplicity       :   1
Irrep              :   0
Energy             :  -414.7464950879891603 Eh
Basis              : AO
                                X                 Y                 Z
Electronic contribution:     -1.937373466       0.219508790       0.141851667
Nuclear contribution   :      0.979992717      -4.235805459       0.590273950
                        -----------------------------------------
Total Dipole Moment    :     -0.957380749      -4.016296669       0.732125618
                        -----------------------------------------
Magnitude (a.u.)       :      4.193235594
Magnitude (Debye)      :     10.658357847

VIBRATIONAL FREQUENCIES
-----------------------

Scaling factor for frequencies =  1.000000000  (already applied!)

     0:       0.00 cm**-1
     1:       0.00 cm**-1
     2:       0.00 cm**-1
     3:       0.00 cm**-1
     4:       0.00 cm**-1
     5:       0.00 cm**-1
     6:     163.65 cm**-1
     7:     199.48 cm**-1
     8:     370.49 cm**-1
     9:     385.74 cm**-1
    10:     427.78 cm**-1
    11:     536.47 cm**-1
    12:     544.29 cm**-1
    13:     570.15 cm**-1
    14:     631.79 cm**-1
    15:     696.44 cm**-1
    16:     719.95 cm**-1
    17:     779.34 cm**-1
    18:     782.63 cm**-1
    19:     840.69 cm**-1
    20:     966.51 cm**-1
    21:     996.26 cm**-1
    22:    1040.43 cm**-1
    23:    1090.22 cm**-1
    24:    1186.04 cm**-1
    25:    1220.03 cm**-1
    26:    1236.68 cm**-1
    27:    1381.54 cm**-1
    28:    1409.14 cm**-1
    29:    1485.84 cm**-1
    30:    1579.85 cm**-1
    31:    1698.09 cm**-1
    32:    1715.11 cm**-1
    33:    1815.45 cm**-1
    34:    3240.73 cm**-1
    35:    3251.34 cm**-1
    36:    3529.97 cm**-1
    37:    3544.09 cm**-1
    38:    3699.59 cm**-1

IR SPECTRUM
-----------

 Mode   freq       eps      Int      T**2         TX        TY        TZ
       cm**-1   L/(mol*cm) km/mol    a.u.
----------------------------------------------------------------------------
  6:    163.65   0.000015    0.08  0.000029  (-0.000224  0.000089  0.005374)
  7:    199.48   0.000308    1.56  0.000482  (-0.001772 -0.001413 -0.021838)
  8:    370.49   0.001976    9.99  0.001665  ( 0.009704 -0.033046  0.021872)
  9:    385.74   0.032528  164.38  0.026315  ( 0.014797  0.033404  0.158051)
 10:    427.78   0.001165    5.89  0.000850  (-0.002456 -0.006355 -0.028350)
 11:    536.47   0.008432   42.61  0.004905  ( 0.052639  0.045710 -0.006675)
 12:    544.29   0.003701   18.70  0.002122  ( 0.044366 -0.012392  0.000166)
 13:    570.15   0.000038    0.19  0.000021  ( 0.001269 -0.002027 -0.003849)
 14:    631.79   0.031427  158.82  0.015523  ( 0.012526  0.017438  0.122728)
 15:    696.44   0.025087  126.78  0.011241  (-0.011104 -0.015880 -0.104239)
 16:    719.95   0.000034    0.17  0.000015  ( 0.001381 -0.000343 -0.003572)
 17:    779.34   0.002507   12.67  0.001004  ( 0.021508  0.023193 -0.001771)
 18:    782.63   0.013297   67.20  0.005302  ( 0.004554  0.009091  0.072101)
 19:    840.69   0.013344   67.44  0.004953  (-0.006050 -0.010937 -0.069261)
 20:    966.51   0.002742   13.86  0.000885  (-0.019063  0.022803 -0.001358)
 21:    996.26   0.000008    0.04  0.000003  ( 0.000016  0.000197  0.001619)
 22:   1040.43   0.006712   33.92  0.002013  (-0.023004 -0.037724  0.007806)
 23:   1090.22   0.003016   15.24  0.000863  (-0.029191  0.001905  0.002758)
 24:   1186.04   0.070540  356.48  0.018560  (-0.120330 -0.060102  0.021645)
 25:   1220.03   0.000098    0.49  0.000025  ( 0.001377  0.004719 -0.000922)
 26:   1236.68   0.015888   80.29  0.004009  (-0.027151 -0.056242  0.010431)
 27:   1381.54   0.001269    6.41  0.000287  ( 0.016011  0.004958 -0.002366)
 28:   1409.14   0.007356   37.18  0.001629  ( 0.036760  0.015607 -0.005851)
 29:   1485.84   0.005894   29.79  0.001238  (-0.006764 -0.033922  0.006435)
 30:   1579.85   0.076814  388.19  0.015173  ( 0.122117  0.009294 -0.013187)
 31:   1698.09   0.152933  772.86  0.028105  ( 0.143057  0.083071 -0.027185)
 32:   1715.11   0.052641  266.03  0.009578  (-0.015015  0.095786 -0.013330)
 33:   1815.45   0.175163  885.20  0.030109  ( 0.009030 -0.171425  0.025324)
 34:   3240.73   0.002350   11.87  0.000226  (-0.006203 -0.013450  0.002621)
 35:   3251.34   0.003000   15.16  0.000288  (-0.016212  0.004959  0.000732)
 36:   3529.97   0.069525  351.35  0.006146  (-0.051550  0.058942 -0.003848)
 37:   3544.09   0.052326  264.43  0.004607  ( 0.007477  0.066700 -0.010128)
 38:   3699.59   0.108260  547.10  0.009132  ( 0.044140  0.082471 -0.019543)

--------------------------
THERMOCHEMISTRY AT 298.15K
--------------------------

Temperature         ...   298.15 K
Pressure            ...     1.00 atm
Total Mass          ...   113.10 AMU
Quasi RRHO          ...     True
Cut-Off Frequency   ...     1.00 cm^-1

Throughout the following assumptions are being made:
  (1) The electronic state is orbitally nondegenerate
  (2) There are no thermally accessible electronically excited states
  (3) Hindered rotations indicated by low frequency modes are not
      treated as such but are treated as vibrations and this may
      cause some error
  (4) All equations used are the standard statistical mechanics
      equations for an ideal gas
  (5) All vibrations are strictly harmonic

freq.     163.65  E(vib)   ...       0.39
freq.     199.48  E(vib)   ...       0.35
freq.     370.49  E(vib)   ...       0.21
freq.     385.74  E(vib)   ...       0.20
freq.     427.78  E(vib)   ...       0.18
freq.     536.47  E(vib)   ...       0.12
freq.     544.29  E(vib)   ...       0.12
freq.     570.15  E(vib)   ...       0.11
freq.     631.79  E(vib)   ...       0.09
freq.     696.44  E(vib)   ...       0.07
freq.     719.95  E(vib)   ...       0.07
freq.     779.34  E(vib)   ...       0.05
freq.     782.63  E(vib)   ...       0.05
freq.     840.69  E(vib)   ...       0.04
freq.     966.51  E(vib)   ...       0.03
freq.     996.26  E(vib)   ...       0.02
freq.    1040.43  E(vib)   ...       0.02
freq.    1090.22  E(vib)   ...       0.02
freq.    1186.04  E(vib)   ...       0.01
freq.    1220.03  E(vib)   ...       0.01
freq.    1236.68  E(vib)   ...       0.01
freq.    1381.54  E(vib)   ...       0.01
freq.    1409.14  E(vib)   ...       0.00
freq.    1485.84  E(vib)   ...       0.00
freq.    1579.85  E(vib)   ...       0.00
freq.    1698.09  E(vib)   ...       0.00
freq.    1715.11  E(vib)   ...       0.00
freq.    1815.45  E(vib)   ...       0.00
freq.    3240.73  E(vib)   ...       0.00
freq.    3251.34  E(vib)   ...       0.00
freq.    3529.97  E(vib)   ...       0.00
freq.    3544.09  E(vib)   ...       0.00
freq.    3699.59  E(vib)   ...       0.00

------------
INNER ENERGY
------------

The inner energy is: U= E(el) + E(ZPE) + E(vib) + E(rot) + E(trans)
    E(el)   - is the total energy from the electronic structure calculation
              = E(kin-el) + E(nuc-el) + E(el-el) + E(nuc-nuc)
    E(ZPE)  - the the zero temperature vibrational energy from the frequency calculation
    E(vib)  - the the finite temperature correction to E(ZPE) due to population
              of excited vibrational states
    E(rot)  - is the rotational thermal energy
    E(trans)- is the translational thermal energy

Summary of contributions to the inner energy U:
Electronic energy                ...   -414.74649509 Eh
Zero point energy                ...      0.09963749 Eh      62.52 kcal/mol
Thermal vibrational correction   ...      0.00350824 Eh       2.20 kcal/mol
Thermal rotational correction    ...      0.00141627 Eh       0.89 kcal/mol
Thermal translational correction ...      0.00141627 Eh       0.89 kcal/mol
-----------------------------------------------------------------------
Total thermal energy                   -414.64051682 Eh

Summary of corrections to the electronic energy:
(perhaps to be used in another calculation)
Total thermal correction                  0.00634078 Eh       3.98 kcal/mol
Non-thermal (ZPE) correction              0.09963749 Eh      62.52 kcal/mol
-----------------------------------------------------------------------
Total correction                          0.10597827 Eh      66.50 kcal/mol

--------
ENTHALPY
--------

The enthalpy is H = U + kB*T
                kB is Boltzmann's constant
Total thermal energy              ...   -414.64051682 Eh
Thermal Enthalpy correction       ...      0.00094421 Eh       0.59 kcal/mol
-----------------------------------------------------------------------
Total Enthalpy                    ...   -414.63957261 Eh

Note: Only C1 symmetry has been detected, increase convergence thresholds
      if your molecule has a higher symmetry. Symmetry factor of 1.0 is
      used for the rotational entropy correction.

Note: Rotational entropy computed according to Herzberg
Infrared and Raman Spectra, Chapter V,1, Van Nostrand Reinhold, 1945
Point Group:  C1, Symmetry Number:   1
Rotational constants in cm-1:     0.126737     0.065878     0.043347

Vibrational entropy computed according to the QRRHO of S. Grimme
Chem.Eur.J. 2012 18 9955 using a reference frequency of 100.0 cm-1

-------
ENTROPY
-------

The entropy contributions are T*S = T*(S(el)+S(vib)+S(rot)+S(trans))
     S(el)   - electronic entropy
     S(vib)  - vibrational entropy
     S(rot)  - rotational entropy
     S(trans)- translational entropy
The entropies will be listed as multiplied by the temperature to get
units of energy

Electronic entropy                ...      0.00000000 Eh      0.00 kcal/mol
Vibrational entropy               ...      0.00540813 Eh      3.39 kcal/mol
Rotational entropy                ...      0.01325171 Eh      8.32 kcal/mol
Translational entropy             ...      0.01904554 Eh     11.95 kcal/mol
-----------------------------------------------------------------------
Final entropy term                ...      0.03770537 Eh     23.66 kcal/mol

In case the symmetry of your molecule has not been determined correctly
or in case you have a reason to use a different symmetry number we print
out the resulting rotational entropy values for sn=1,12:

 non-linear molecules -----------------------------------
|  sn= 1 | S(rot)=       0.01325171 Eh      8.32 kcal/mol|
|  sn= 2 | S(rot)=       0.01259725 Eh      7.90 kcal/mol|
|  sn= 3 | S(rot)=       0.01221442 Eh      7.66 kcal/mol|
|  sn= 4 | S(rot)=       0.01194279 Eh      7.49 kcal/mol|
|  sn= 5 | S(rot)=       0.01173211 Eh      7.36 kcal/mol|
|  sn= 6 | S(rot)=       0.01155996 Eh      7.25 kcal/mol|
|  sn= 7 | S(rot)=       0.01141442 Eh      7.16 kcal/mol|
|  sn= 8 | S(rot)=       0.01128834 Eh      7.08 kcal/mol|
|  sn= 9 | S(rot)=       0.01117713 Eh      7.01 kcal/mol|
|  sn=10 | S(rot)=       0.01107765 Eh      6.95 kcal/mol|
|  sn=11 | S(rot)=       0.01098766 Eh      6.89 kcal/mol|
|  sn=12 | S(rot)=       0.01090550 Eh      6.84 kcal/mol|
 linear molecules ---------------------------------------
|  Dinfh | S(rot)=       0.00828913 Eh      5.20 kcal/mol|
|  Cinfv | S(rot)=       0.00894359 Eh      5.61 kcal/mol|
 --------------------------------------------------------

-------------------
GIBBS FREE ENERGY
-------------------

The Gibbs free energy is G = H - T*S

Total enthalpy                    ...   -414.63957261 Eh
Total entropy correction          ...     -0.03770537 Eh    -23.66 kcal/mol
-----------------------------------------------------------------------

                             ****ORCA TERMINATED NORMALLY****
TOTAL RUN TIME: 0 days 0 hours 0 minutes 59 seconds 256 msec
