                         Program Version 4.2.1 -  RELEASE  -
|  1> !B3LYP def2-SVP OPT FREQ
|  2> %pal
|  3> nprocs 16
|  4> end
|  5> * xyz 0 1
|  6>    C        1.32473        0.49516       -0.07094
|  7>    C        1.13894       -0.83742        0.03418
|  8>    N       -0.14943       -1.38802        0.10855
|  9>    C       -1.30730       -0.55468        0.07507
| 10>    N       -1.12118        0.84628       -0.03525
| 11>    C        0.18928        1.42125       -0.11192
| 12>    O       -2.42322       -1.05548        0.14114
| 13>    O        0.23983        2.63654       -0.20492
| 14>    H        1.97469       -1.54909        0.06650
| 15>    H       -0.26397       -2.37323        0.18546
| 16>    H       -1.93136        1.43000       -0.05870
| 17>    H        2.32899        0.92869       -0.12920
| 18> **                         ****END OF INPUT****
 Total Charge           Charge          ....    0
 Multiplicity           Mult            ....    1
 Number of Electrons    NEL             ....   58
FINAL SINGLE POINT ENERGY      -414.295905846471
FINAL SINGLE POINT ENERGY      -414.304153145069
FINAL SINGLE POINT ENERGY      -414.305501053410
FINAL SINGLE POINT ENERGY      -414.305574028582
FINAL SINGLE POINT ENERGY      -414.305588749605
FINAL SINGLE POINT ENERGY      -414.305589240445
FINAL SINGLE POINT ENERGY      -414.305591581451
                    ***********************HURRAY********************

CARTESIAN COORDINATES (ANGSTROEM)
---------------------------------
  C      1.326706    0.515754   -0.072626
  C      1.114284   -0.816584    0.032594
  N     -0.151041   -1.347120    0.103530
  C     -1.315628   -0.577682    0.076752
  N     -1.060936    0.779065   -0.032267
  C      0.187706    1.435734   -0.112929
  O     -2.423226   -1.063291    0.142349
  O      0.244598    2.644464   -0.204665
  H      1.931646   -1.540867    0.066907
  H     -0.299216   -2.347153    0.186398
  H     -1.882973    1.378347   -0.056429
  H      2.328081    0.939334   -0.129643

 Multiplicity           Mult            ....    1
 Number of Electrons    NEL             ....   58
 Basis Dimension        Dim             ....  132

ORBITAL ENERGIES
----------------

  NO   OCC          E(Eh)            E(eV)
   0   2.0000     -19.117659      -520.2180
   1   2.0000     -19.109785      -520.0037
   2   2.0000     -14.400587      -391.8599
   3   2.0000     -14.379875      -391.2963
   4   2.0000     -10.338994      -281.3383
   5   2.0000     -10.303728      -280.3787
   6   2.0000     -10.272012      -279.5157
   7   2.0000     -10.205664      -277.7102
   8   2.0000      -1.069764       -29.1098
   9   2.0000      -1.034338       -28.1458
  10   2.0000      -0.973381       -26.4870
  11   2.0000      -0.918335       -24.9892
  12   2.0000      -0.792663       -21.5694
  13   2.0000      -0.689053       -18.7501
  14   2.0000      -0.661660       -18.0047
  15   2.0000      -0.597362       -16.2550
  16   2.0000      -0.562124       -15.2962
  17   2.0000      -0.522622       -14.2213
  18   2.0000      -0.484190       -13.1755
  19   2.0000      -0.471930       -12.8419
  20   2.0000      -0.449435       -12.2298
  21   2.0000      -0.424146       -11.5416
  22   2.0000      -0.418908       -11.3991
  23   2.0000      -0.409108       -11.1324
  24   2.0000      -0.373721       -10.1695
  25   2.0000      -0.299031        -8.1371
  26   2.0000      -0.289166        -7.8686
  27   2.0000      -0.267126        -7.2689
  28   2.0000      -0.255139        -6.9427
  29   0.0000      -0.045730        -1.2444
  30   0.0000       0.009060         0.2465
  31   0.0000       0.029943         0.8148
  32   0.0000       0.078886         2.1466
  33   0.0000       0.084526         2.3001

MULLIKEN ATOMIC CHARGES
-----------------------
   0 C :   -0.117024
   1 C :    0.129596
   2 N :   -0.116997
   3 C :    0.161361
   4 N :   -0.144777
   5 C :    0.167228
   6 O :   -0.211375
   7 O :   -0.207206
   8 H :    0.028659
   9 H :    0.148842
  10 H :    0.147271
  11 H :    0.014423
Sum of atomic charges:   -0.0000000

LOEWDIN ATOMIC CHARGES
----------------------
   0 C :   -0.113820
   1 C :    0.063189
   2 N :    0.019901
   3 C :    0.080017
   4 N :   -0.003726
   5 C :    0.071902
   6 O :   -0.210525
   7 O :   -0.191707
   8 H :    0.038926
   9 H :    0.100538
  10 H :    0.100791
  11 H :    0.044514

  Mayer bond orders larger than 0.100000
B(  0-C ,  1-C ) :   1.6666 B(  0-C ,  5-C ) :   1.0511 B(  0-C , 11-H ) :   0.9751
B(  1-C ,  2-N ) :   1.1712 B(  1-C ,  8-H ) :   0.9568 B(  2-N ,  3-C ) :   1.0489
B(  2-N ,  9-H ) :   0.9161 B(  3-C ,  4-N ) :   1.0984 B(  3-C ,  6-O ) :   2.1480
B(  4-N ,  5-C ) :   1.0302 B(  4-N , 10-H ) :   0.9012 B(  5-C ,  7-O ) :   2.1311

FINAL SINGLE POINT ENERGY      -414.305591823261

DIPOLE MOMENT
-------------
                                X             Y             Z
Electronic contribution:     -2.10146       0.88001      -0.01389
Nuclear contribution   :      3.05971      -2.21277       0.09119
                        -----------------------------------------
Total Dipole Moment    :      0.95824      -1.33275       0.07730
                        -----------------------------------------
Magnitude (a.u.)       :      1.64330
Magnitude (Debye)      :      4.17694

VIBRATIONAL FREQUENCIES
-----------------------

Scaling factor for frequencies =  1.000000000  (already applied!)

   0:         0.00 cm**-1
   1:         0.00 cm**-1
   2:         0.00 cm**-1
   3:         0.00 cm**-1
   4:         0.00 cm**-1
   5:         0.00 cm**-1
   6:       155.03 cm**-1
   7:       173.38 cm**-1
   8:       393.58 cm**-1
   9:       404.29 cm**-1
  10:       522.91 cm**-1
  11:       547.98 cm**-1
  12:       566.20 cm**-1
  13:       587.81 cm**-1
  14:       699.23 cm**-1
  15:       733.15 cm**-1
  16:       775.02 cm**-1
  17:       784.74 cm**-1
  18:       824.26 cm**-1
  19:       970.51 cm**-1
  20:       978.88 cm**-1
  21:       990.27 cm**-1
  22:      1085.83 cm**-1
  23:      1197.71 cm**-1
  24:      1222.34 cm**-1
  25:      1377.08 cm**-1
  26:      1404.78 cm**-1
  27:      1417.51 cm**-1
  28:      1506.93 cm**-1
  29:      1688.86 cm**-1
  30:      1825.19 cm**-1
  31:      1858.91 cm**-1
  32:      3205.34 cm**-1
  33:      3247.24 cm**-1
  34:      3595.45 cm**-1
  35:      3630.43 cm**-1

IR SPECTRUM
-----------

 Mode    freq (cm**-1)   T**2         TX         TY         TZ
-------------------------------------------------------------------
   6:       155.03    1.582558  ( -0.034393  -0.081980  -1.254852)
   7:       173.38    0.000966  ( -0.010733   0.016772   0.023863)
   8:       393.58   20.572577  ( -3.324863   3.081645  -0.146034)
   9:       404.29   19.736175  ( -0.107409  -0.364595  -4.426252)
  10:       522.91   17.839009  (  1.973938   3.716153  -0.364392)
  11:       547.98    7.976400  ( -2.819703  -0.106836   0.119427)
  12:       566.20    2.652122  (  1.367863  -0.877976   0.101150)
  13:       587.81   47.079503  ( -0.179530  -0.661225  -6.827156)
  14:       699.23   58.368856  (  0.200937   0.590586   7.614439)
  15:       733.15    9.278772  ( -0.085287  -0.267311  -3.033157)
  16:       775.02    2.251536  (  0.164523   1.491377   0.016185)
  17:       784.74   48.900828  ( -0.170539  -0.515294  -6.971816)
  18:       824.26   69.124206  (  0.218611   0.624642   8.287716)
  19:       970.51    6.202317  ( -2.101227  -1.327719   0.155970)
  20:       978.88    0.140457  (  0.012258  -0.012623  -0.374362)
  21:       990.27    6.156310  (  1.815422  -1.689012   0.088263)
  22:      1085.83    6.613307  (  0.978579  -2.373499   0.148964)
  23:      1197.71   88.562450  (  4.753911   8.089403  -0.724111)
  24:      1222.34    1.182331  (  0.311818  -1.039819   0.062274)
  25:      1377.08   13.311306  ( -3.329863   1.490799  -0.028890)
  26:      1404.78   80.291755  ( -8.421978   3.059728  -0.010118)
  27:      1417.51   49.893556  (  5.992100  -3.737868   0.128970)
  28:      1506.93  122.475490  (-10.838026  -2.196854   0.431873)
  29:      1688.86   76.490782  ( -0.809957  -8.683589   0.655769)
  30:      1825.19  630.195933  (  6.632949  24.130760  -1.976452)
  31:      1858.91  541.288460  (-21.933719  -7.672133   1.157075)
  32:      3205.34    2.565290  ( -1.586315   0.219279   0.028511)
  33:      3247.24    1.381067  (  0.852996   0.803774  -0.086097)
  34:      3595.45   71.925347  (  6.648331  -5.260580   0.226580)
  35:      3630.43  113.030343  ( -0.860122 -10.562707   0.848389)

--------------------------
THERMOCHEMISTRY AT 298.15K
--------------------------

Temperature         ... 298.15 K
Pressure            ... 1.00 atm
Total Mass          ... 112.09 AMU

Throughout the following assumptions are being made:
  (1) The electronic state is orbitally nondegenerate
  (2) There are no thermally accessible electronically excited states
  (3) Hindered rotations indicated by low frequency modes are not
      treated as such but are treated as vibrations and this may
      cause some error
  (4) All equations used are the standard statistical mechanics
      equations for an ideal gas
  (5) All vibrations are strictly harmonic

freq.     155.03  E(vib)   ...       0.40
freq.     173.38  E(vib)   ...       0.38
freq.     393.58  E(vib)   ...       0.20
freq.     404.29  E(vib)   ...       0.19
freq.     522.91  E(vib)   ...       0.13
freq.     547.98  E(vib)   ...       0.12
freq.     566.20  E(vib)   ...       0.11
freq.     587.81  E(vib)   ...       0.10
freq.     699.23  E(vib)   ...       0.07
freq.     733.15  E(vib)   ...       0.06
freq.     775.02  E(vib)   ...       0.05
freq.     784.74  E(vib)   ...       0.05
freq.     824.26  E(vib)   ...       0.04
freq.     970.51  E(vib)   ...       0.03
freq.     978.88  E(vib)   ...       0.03
freq.     990.27  E(vib)   ...       0.02
freq.    1085.83  E(vib)   ...       0.02
freq.    1197.71  E(vib)   ...       0.01
freq.    1222.34  E(vib)   ...       0.01
freq.    1377.08  E(vib)   ...       0.01
freq.    1404.78  E(vib)   ...       0.00
freq.    1417.51  E(vib)   ...       0.00
freq.    1506.93  E(vib)   ...       0.00
freq.    1688.86  E(vib)   ...       0.00
freq.    1825.19  E(vib)   ...       0.00
freq.    1858.91  E(vib)   ...       0.00
freq.    3205.34  E(vib)   ...       0.00
freq.    3247.24  E(vib)   ...       0.00
freq.    3595.45  E(vib)   ...       0.00
freq.    3630.43  E(vib)   ...       0.00

------------
INNER ENERGY
------------

The inner energy is: U= E(el) + E(ZPE) + E(vib) + E(rot) + E(trans)
    E(el)   - is the total energy from the electronic structure calculation
              = E(kin-el) + E(nuc-el) + E(el-el) + E(nuc-nuc)
    E(ZPE)  - the the zero temperature vibrational energy from the frequency calculation
    E(vib)  - the the finite temperature correction to E(ZPE) due to population
              of excited vibrational states
    E(rot)  - is the rotational thermal energy
    E(trans)- is the translational thermal energy

Summary of contributions to the inner energy U:
Electronic energy                ...   -414.30559182 Eh
Zero point energy                ...      0.08741528 Eh      54.85 kcal/mol
Thermal vibrational correction   ...      0.00326765 Eh       2.05 kcal/mol
Thermal rotational correction    ...      0.00141627 Eh       0.89 kcal/mol
Thermal translational correction ...      0.00141627 Eh       0.89 kcal/mol
-----------------------------------------------------------------------
Total thermal energy                   -414.21207636 Eh

Summary of corrections to the electronic energy:
(perhaps to be used in another calculation)
Total thermal correction                  0.00610019 Eh       3.83 kcal/mol
Non-thermal (ZPE) correction              0.08741528 Eh      54.85 kcal/mol
-----------------------------------------------------------------------
Total correction                          0.09351547 Eh      58.68 kcal/mol

--------
ENTHALPY
--------

The enthalpy is H = U + kB*T
                kB is Boltzmann's constant
Total free energy                 ...   -414.21207636 Eh
Thermal Enthalpy correction       ...      0.00094421 Eh       0.59 kcal/mol
-----------------------------------------------------------------------
Total Enthalpy                    ...   -414.21113215 Eh

Note: Only C1 symmetry has been detected, increase convergence thresholds
      if your molecule has a higher symmetry. Symmetry factor of 1.0 is
      used for the rotational entropy correction.

Note: Rotational entropy computed according to Herzberg
Infrared and Raman Spectra, Chapter V,1, Van Nostrand Reinhold, 1945
Point Group:  C1, Symmetry Number:   1
Rotational constants in cm-1:     0.129035     0.066938     0.044074

Vibrational entropy computed according to the QRRHO of S. Grimme
Chem.Eur.J. 2012 18 9955

-------
ENTROPY
-------

The entropy contributions are T*S = T*(S(el)+S(vib)+S(rot)+S(trans))
     S(el)   - electronic entropy
     S(vib)  - vibrational entropy
     S(rot)  - rotational entropy
     S(trans)- translational entropy
The entropies will be listed as mutliplied by the temperature to get
units of energy

Electronic entropy                ...      0.00000000 Eh      0.00 kcal/mol
Vibrational entropy               ...      0.00512503 Eh      3.22 kcal/mol
Rotational entropy                ...      0.01322783 Eh      8.30 kcal/mol
Translational entropy             ...      0.01903286 Eh     11.94 kcal/mol
-----------------------------------------------------------------------
Final entropy term                ...      0.03738571 Eh     23.46 kcal/mol

In case the symmetry of your molecule has not been determined correctly
or in case you have a reason to use a different symmetry number we print
out the resulting rotational entropy values for sn=1,12 :
 --------------------------------------------------------
|  sn= 1 | S(rot)=       0.01322783 Eh      8.30 kcal/mol|
|  sn= 2 | S(rot)=       0.01257337 Eh      7.89 kcal/mol|
|  sn= 3 | S(rot)=       0.01219054 Eh      7.65 kcal/mol|
|  sn= 4 | S(rot)=       0.01191892 Eh      7.48 kcal/mol|
|  sn= 5 | S(rot)=       0.01170823 Eh      7.35 kcal/mol|
|  sn= 6 | S(rot)=       0.01153608 Eh      7.24 kcal/mol|
|  sn= 7 | S(rot)=       0.01139054 Eh      7.15 kcal/mol|
|  sn= 8 | S(rot)=       0.01126446 Eh      7.07 kcal/mol|
|  sn= 9 | S(rot)=       0.01115325 Eh      7.00 kcal/mol|
|  sn=10 | S(rot)=       0.01105377 Eh      6.94 kcal/mol|
|  sn=11 | S(rot)=       0.01096378 Eh      6.88 kcal/mol|
|  sn=12 | S(rot)=       0.01088163 Eh      6.83 kcal/mol|
 --------------------------------------------------------

-------------------
GIBBS FREE ENERGY
-------------------

The Gibbs free energy is G = H - T*S

Total enthalpy                    ...   -414.21113215 Eh
Total entropy correction          ...     -0.03738571 Eh    -23.46 kcal/mol
-----------------------------------------------------------------------
Final Gibbs free energy         ...   -414.24851786 Eh

For completeness - the Gibbs free energy minus the electronic energy
G-E(el)                           ...      0.05707396 Eh     35.81 kcal/mol

                             ****ORCA TERMINATED NORMALLY****
TOTAL RUN TIME: 0 days 0 hours 1 minutes 40 seconds 997 msec
