                         Program Version 6.1.0-f.0  -   RELEASE   -
|  1> !B3LYP def2-SVP OPT FREQ pal16
|  2> * xyz 0 1
|  3>    C        1.32473        0.49516       -0.07094
|  4>    C        1.13894       -0.83742        0.03418
|  5>    N       -0.14943       -1.38802        0.10855
|  6>    C       -1.30730       -0.55468        0.07507
|  7>    N       -1.12118        0.84628       -0.03525
|  8>    C        0.18928        1.42125       -0.11192
|  9>    O       -2.42322       -1.05548        0.14114
| 10>    O        0.23983        2.63654       -0.20492
| 11>    H        1.97469       -1.54909        0.06650
| 12>    H       -0.26397       -2.37323        0.18546
| 13>    H       -1.93136        1.43000       -0.05870
| 14>    H        2.32899        0.92869       -0.12920
| 15> **                         ****END OF INPUT****
 Total Charge           Charge          ....    0
 Multiplicity           Mult            ....    1
 Number of Electrons    NEL             ....   58
FINAL SINGLE POINT ENERGY      -414.296346697833
FINAL SINGLE POINT ENERGY      -414.304601617704
FINAL SINGLE POINT ENERGY      -414.305948131090
FINAL SINGLE POINT ENERGY      -414.306022509145
FINAL SINGLE POINT ENERGY      -414.306034301420
FINAL SINGLE POINT ENERGY      -414.306036663982
FINAL SINGLE POINT ENERGY      -414.306038709172
                    ***********************HURRAY********************

CARTESIAN COORDINATES (ANGSTROEM)
---------------------------------
  C      1.326848    0.515928   -0.072700
  C      1.114242   -0.816397    0.033228
  N     -0.151011   -1.346899    0.105652
  C     -1.316051   -0.577870    0.076970
  N     -1.061074    0.779115   -0.031564
  C      0.187542    1.435657   -0.113070
  O     -2.423510   -1.063280    0.141526
  O      0.244721    2.644340   -0.205623
  H      1.931558   -1.540834    0.067083
  H     -0.298641   -2.347077    0.184357
  H     -1.883007    1.378386   -0.055884
  H      2.328382    0.938932   -0.130006

 Multiplicity           Mult            ....    1
 Number of Electrons    NEL             ....   58
 Basis Dimension        Dim             ....  132

ORBITAL ENERGIES
----------------

  NO   OCC          E(Eh)            E(eV)
   0   2.0000     -19.117553      -520.2151
   1   2.0000     -19.110126      -520.0130
   2   2.0000     -14.400444      -391.8560
   3   2.0000     -14.379775      -391.2936
   4   2.0000     -10.339038      -281.3395
   5   2.0000     -10.303847      -280.3819
   6   2.0000     -10.272090      -279.5178
   7   2.0000     -10.205619      -277.7090
   8   2.0000      -1.069774       -29.1100
   9   2.0000      -1.034317       -28.1452
  10   2.0000      -0.973396       -26.4874
  11   2.0000      -0.918254       -24.9870
  12   2.0000      -0.792606       -21.5679
  13   2.0000      -0.688958       -18.7475
  14   2.0000      -0.661540       -18.0014
  15   2.0000      -0.597327       -16.2541
  16   2.0000      -0.562034       -15.2937
  17   2.0000      -0.522522       -14.2185
  18   2.0000      -0.484210       -13.1760
  19   2.0000      -0.471894       -12.8409
  20   2.0000      -0.449444       -12.2300
  21   2.0000      -0.424155       -11.5418
  22   2.0000      -0.418920       -11.3994
  23   2.0000      -0.409141       -11.1333
  24   2.0000      -0.373783       -10.1712
  25   2.0000      -0.298890        -8.1332
  26   2.0000      -0.289253        -7.8710
  27   2.0000      -0.267213        -7.2712
  28   2.0000      -0.255172        -6.9436
  29   0.0000      -0.045791        -1.2460
  30   0.0000       0.009096         0.2475
  31   0.0000       0.029419         0.8005
  32   0.0000       0.078943         2.1481
  33   0.0000       0.084633         2.3030

MULLIKEN ATOMIC CHARGES
-----------------------
   0 C :   -0.116249
   1 C :    0.128476
   2 N :   -0.115464
   3 C :    0.162956
   4 N :   -0.143873
   5 C :    0.165525
   6 O :   -0.211351
   7 O :   -0.206214
   8 H :    0.027366
   9 H :    0.147698
  10 H :    0.146558
  11 H :    0.014572
Sum of atomic charges:    0.0000000

LOEWDIN ATOMIC CHARGES
----------------------
   0 C :   -0.113784
   1 C :    0.063230
   2 N :    0.020319
   3 C :    0.080158
   4 N :   -0.003954
   5 C :    0.071537
   6 O :   -0.209942
   7 O :   -0.191662
   8 H :    0.038614
   9 H :    0.100180
  10 H :    0.100553
  11 H :    0.044750

  Mayer bond orders larger than 0.100000
B(  0-C ,  1-C ) :   1.6670 B(  0-C ,  5-C ) :   1.0518 B(  0-C , 11-H ) :   0.9734
B(  1-C ,  2-N ) :   1.1713 B(  1-C ,  8-H ) :   0.9566 B(  2-N ,  3-C ) :   1.0483
B(  2-N ,  9-H ) :   0.9166 B(  3-C ,  4-N ) :   1.0974 B(  3-C ,  6-O ) :   2.1476
B(  4-N ,  5-C ) :   1.0305 B(  4-N , 10-H ) :   0.9009 B(  5-C ,  7-O ) :   2.1323

FINAL SINGLE POINT ENERGY      -414.306049926957

DIPOLE MOMENT
-------------

Method             : SCF
Type of density    : Electron Density
Multiplicity       :   1
Irrep              :   0
Energy             :  -414.3060499269568027 Eh
Basis              : AO
                                X                 Y                 Z
Electronic contribution:     -2.103846061       0.876621407      -0.012687459
Nuclear contribution   :      3.060720873      -2.213101172       0.089022766
                        -----------------------------------------
Total Dipole Moment    :      0.956874811      -1.336479764       0.076335307
                        -----------------------------------------
Magnitude (a.u.)       :      1.645483104
Magnitude (Debye)      :      4.182485662

VIBRATIONAL FREQUENCIES
-----------------------

Scaling factor for frequencies =  1.000000000  (already applied!)

     0:       0.00 cm**-1
     1:       0.00 cm**-1
     2:       0.00 cm**-1
     3:       0.00 cm**-1
     4:       0.00 cm**-1
     5:       0.00 cm**-1
     6:     154.60 cm**-1
     7:     173.08 cm**-1
     8:     393.28 cm**-1
     9:     404.43 cm**-1
    10:     522.92 cm**-1
    11:     548.35 cm**-1
    12:     566.12 cm**-1
    13:     590.52 cm**-1
    14:     699.25 cm**-1
    15:     733.41 cm**-1
    16:     774.95 cm**-1
    17:     784.82 cm**-1
    18:     824.32 cm**-1
    19:     970.28 cm**-1
    20:     979.66 cm**-1
    21:     990.52 cm**-1
    22:    1086.25 cm**-1
    23:    1197.63 cm**-1
    24:    1222.76 cm**-1
    25:    1377.14 cm**-1
    26:    1404.66 cm**-1
    27:    1417.48 cm**-1
    28:    1507.09 cm**-1
    29:    1689.02 cm**-1
    30:    1824.46 cm**-1
    31:    1859.26 cm**-1
    32:    3204.05 cm**-1
    33:    3247.92 cm**-1
    34:    3594.96 cm**-1
    35:    3632.61 cm**-1

IR SPECTRUM
-----------

 Mode   freq       eps      Int      T**2         TX        TY        TZ
       cm**-1   L/(mol*cm) km/mol    a.u.
----------------------------------------------------------------------------
  6:    154.60   0.000317    1.60  0.000640  (-0.000664 -0.001922 -0.025209)
  7:    173.08   0.000000    0.00  0.000000  ( 0.000012 -0.000026 -0.000381)
  8:    393.28   0.004062   20.53  0.003223  ( 0.041612 -0.038580  0.001828)
  9:    404.43   0.003857   19.49  0.002976  (-0.001409 -0.004107 -0.054380)
 10:    522.92   0.003550   17.94  0.002119  (-0.021459 -0.040562  0.003605)
 11:    548.35   0.001567    7.92  0.000892  ( 0.029836  0.001070 -0.000760)
 12:    566.12   0.000528    2.67  0.000291  ( 0.014527 -0.008933  0.000433)
 13:    590.52   0.009273   46.86  0.004900  (-0.001745 -0.005143 -0.069790)
 14:    699.25   0.011526   58.25  0.005144  (-0.001760 -0.005363 -0.071498)
 15:    733.41   0.001899    9.60  0.000808  (-0.000700 -0.002150 -0.028338)
 16:    774.95   0.000438    2.21  0.000176  (-0.001349 -0.013190  0.000659)
 17:    784.82   0.009759   49.32  0.003880  (-0.001657 -0.004608 -0.062099)
 18:    824.32   0.013504   68.24  0.005112  ( 0.001779  0.005408  0.071273)
 19:    970.28   0.001237    6.25  0.000398  (-0.017023 -0.010325  0.001222)
 20:    979.66   0.000024    0.12  0.000008  ( 0.000166  0.000332  0.002734)
 21:    990.52   0.001212    6.12  0.000382  ( 0.014106 -0.013507  0.000651)
 22:   1086.25   0.001310    6.62  0.000376  ( 0.007124 -0.018008  0.001174)
 23:   1197.63   0.017476   88.32  0.004554  (-0.034043 -0.058029  0.005238)
 24:   1222.76   0.000251    1.27  0.000064  (-0.001802  0.007771 -0.000554)
 25:   1377.14   0.002790   14.10  0.000632  (-0.022949  0.010267 -0.000195)
 26:   1404.66   0.016153   81.63  0.003589  (-0.056344  0.020344 -0.000084)
 27:   1417.48   0.009583   48.43  0.002110  ( 0.038953 -0.024324  0.000854)
 28:   1507.09   0.024032  121.45  0.004976  (-0.069060 -0.014104  0.002826)
 29:   1689.02   0.015063   76.12  0.002783  (-0.005001 -0.052358  0.004081)
 30:   1824.46   0.123936  626.32  0.021199  ( 0.037904  0.140103 -0.011532)
 31:   1859.26   0.107930  545.43  0.018115  ( 0.126668  0.045020 -0.006609)
 32:   3204.05   0.000529    2.67  0.000052  (-0.007091  0.001113  0.000104)
 33:   3247.92   0.000291    1.47  0.000028  ( 0.003952  0.003496 -0.000378)
 34:   3594.96   0.014234   71.93  0.001236  (-0.027603  0.021744 -0.000936)
 35:   3632.61   0.022427  113.34  0.001927  ( 0.003511  0.043622 -0.003376)

--------------------------
THERMOCHEMISTRY AT 298.15K
--------------------------

Temperature         ...   298.15 K
Pressure            ...     1.00 atm
Total Mass          ...   112.09 AMU
Quasi RRHO          ...     True
Cut-Off Frequency   ...     1.00 cm^-1

Throughout the following assumptions are being made:
  (1) The electronic state is orbitally nondegenerate
  (2) There are no thermally accessible electronically excited states
  (3) Hindered rotations indicated by low frequency modes are not
      treated as such but are treated as vibrations and this may
      cause some error
  (4) All equations used are the standard statistical mechanics
      equations for an ideal gas
  (5) All vibrations are strictly harmonic

freq.     154.60  E(vib)   ...       0.40
freq.     173.08  E(vib)   ...       0.38
freq.     393.28  E(vib)   ...       0.20
freq.     404.43  E(vib)   ...       0.19
freq.     522.92  E(vib)   ...       0.13
freq.     548.35  E(vib)   ...       0.12
freq.     566.12  E(vib)   ...       0.11
freq.     590.52  E(vib)   ...       0.10
freq.     699.25  E(vib)   ...       0.07
freq.     733.41  E(vib)   ...       0.06
freq.     774.95  E(vib)   ...       0.05
freq.     784.82  E(vib)   ...       0.05
freq.     824.32  E(vib)   ...       0.04
freq.     970.28  E(vib)   ...       0.03
freq.     979.66  E(vib)   ...       0.03
freq.     990.52  E(vib)   ...       0.02
freq.    1086.25  E(vib)   ...       0.02
freq.    1197.63  E(vib)   ...       0.01
freq.    1222.76  E(vib)   ...       0.01
freq.    1377.14  E(vib)   ...       0.01
freq.    1404.66  E(vib)   ...       0.00
freq.    1417.48  E(vib)   ...       0.00
freq.    1507.09  E(vib)   ...       0.00
freq.    1689.02  E(vib)   ...       0.00
freq.    1824.46  E(vib)   ...       0.00
freq.    1859.26  E(vib)   ...       0.00
freq.    3204.05  E(vib)   ...       0.00
freq.    3247.92  E(vib)   ...       0.00
freq.    3594.96  E(vib)   ...       0.00
freq.    3632.61  E(vib)   ...       0.00

------------
INNER ENERGY
------------

The inner energy is: U= E(el) + E(ZPE) + E(vib) + E(rot) + E(trans)
    E(el)   - is the total energy from the electronic structure calculation
              = E(kin-el) + E(nuc-el) + E(el-el) + E(nuc-nuc)
    E(ZPE)  - the the zero temperature vibrational energy from the frequency calculation
    E(vib)  - the the finite temperature correction to E(ZPE) due to population
              of excited vibrational states
    E(rot)  - is the rotational thermal energy
    E(trans)- is the translational thermal energy

Summary of contributions to the inner energy U:
Electronic energy                ...   -414.30604993 Eh
Zero point energy                ...      0.08742648 Eh      54.86 kcal/mol
Thermal vibrational correction   ...      0.00326703 Eh       2.05 kcal/mol
Thermal rotational correction    ...      0.00141627 Eh       0.89 kcal/mol
Thermal translational correction ...      0.00141627 Eh       0.89 kcal/mol
-----------------------------------------------------------------------
Total thermal energy                   -414.21252388 Eh

Summary of corrections to the electronic energy:
(perhaps to be used in another calculation)
Total thermal correction                  0.00609957 Eh       3.83 kcal/mol
Non-thermal (ZPE) correction              0.08742648 Eh      54.86 kcal/mol
-----------------------------------------------------------------------
Total correction                          0.09352605 Eh      58.69 kcal/mol

--------
ENTHALPY
--------

The enthalpy is H = U + kB*T
                kB is Boltzmann's constant
Total thermal energy              ...   -414.21252388 Eh
Thermal Enthalpy correction       ...      0.00094421 Eh       0.59 kcal/mol
-----------------------------------------------------------------------
Total Enthalpy                    ...   -414.21157967 Eh

Note: Only C1 symmetry has been detected, increase convergence thresholds
      if your molecule has a higher symmetry. Symmetry factor of 1.0 is
      used for the rotational entropy correction.

Note: Rotational entropy computed according to Herzberg
Infrared and Raman Spectra, Chapter V,1, Van Nostrand Reinhold, 1945
Point Group:  C1, Symmetry Number:   1
Rotational constants in cm-1:     0.129030     0.066933     0.044071

Vibrational entropy computed according to the QRRHO of S. Grimme
Chem.Eur.J. 2012 18 9955 using a reference frequency of 100.0 cm-1

-------
ENTROPY
-------

The entropy contributions are T*S = T*(S(el)+S(vib)+S(rot)+S(trans))
     S(el)   - electronic entropy
     S(vib)  - vibrational entropy
     S(rot)  - rotational entropy
     S(trans)- translational entropy
The entropies will be listed as multiplied by the temperature to get
units of energy

Electronic entropy                ...      0.00000000 Eh      0.00 kcal/mol
Vibrational entropy               ...      0.00512597 Eh      3.22 kcal/mol
Rotational entropy                ...      0.01322792 Eh      8.30 kcal/mol
Translational entropy             ...      0.01903286 Eh     11.94 kcal/mol
-----------------------------------------------------------------------
Final entropy term                ...      0.03738675 Eh     23.46 kcal/mol

In case the symmetry of your molecule has not been determined correctly
or in case you have a reason to use a different symmetry number we print
out the resulting rotational entropy values for sn=1,12:

 non-linear molecules -----------------------------------
|  sn= 1 | S(rot)=       0.01322792 Eh      8.30 kcal/mol|
|  sn= 2 | S(rot)=       0.01257346 Eh      7.89 kcal/mol|
|  sn= 3 | S(rot)=       0.01219063 Eh      7.65 kcal/mol|
|  sn= 4 | S(rot)=       0.01191901 Eh      7.48 kcal/mol|
|  sn= 5 | S(rot)=       0.01170832 Eh      7.35 kcal/mol|
|  sn= 6 | S(rot)=       0.01153617 Eh      7.24 kcal/mol|
|  sn= 7 | S(rot)=       0.01139063 Eh      7.15 kcal/mol|
|  sn= 8 | S(rot)=       0.01126455 Eh      7.07 kcal/mol|
|  sn= 9 | S(rot)=       0.01115334 Eh      7.00 kcal/mol|
|  sn=10 | S(rot)=       0.01105386 Eh      6.94 kcal/mol|
|  sn=11 | S(rot)=       0.01096387 Eh      6.88 kcal/mol|
|  sn=12 | S(rot)=       0.01088172 Eh      6.83 kcal/mol|
 linear molecules ---------------------------------------
|  Dinfh | S(rot)=       0.00827349 Eh      5.19 kcal/mol|
|  Cinfv | S(rot)=       0.00892794 Eh      5.60 kcal/mol|
 --------------------------------------------------------

-------------------
GIBBS FREE ENERGY
-------------------

The Gibbs free energy is G = H - T*S

Total enthalpy                    ...   -414.21157967 Eh
Total entropy correction          ...     -0.03738675 Eh    -23.46 kcal/mol
-----------------------------------------------------------------------
Final Gibbs free energy         ...   -414.24896641 Eh

For completeness - the Gibbs free energy minus the electronic energy

                             ****ORCA TERMINATED NORMALLY****
TOTAL RUN TIME: 0 days 0 hours 0 minutes 51 seconds 478 msec
