                         Program Version 6.1.0  -  RELEASE   -
|  1> ! PBE0 OPT FREQ def2-SVP pal4
|  2> * xyz 0 1
|  3>    C       -2.08845       -1.63640       -0.00341
|  4>    C       -0.80164       -0.85740       -0.03791
|  5>    H       -2.88872       -1.04100       -0.45128
|  6>    H       -2.34080       -1.87543        1.03226
|  7>    H       -1.98265       -2.55764       -0.58227
|  8>    C        0.47611       -1.64987        0.01777
|  9>    H        0.49734       -2.24930        0.93107
| 10>    H        1.33237       -0.96970        0.01951
| 11>    H        0.54267       -2.29690       -0.86051
| 12>    O       -0.79636        0.37293       -0.06523
| 13> *
| 14>
| 15>
| 16>                          ****END OF INPUT****
 Total Charge           Charge          ....    0
 Multiplicity           Mult            ....    1
 Number of Electrons    NEL             ....   32
FINAL SINGLE POINT ENERGY      -192.784331655243
FINAL SINGLE POINT ENERGY      -192.785804745088
FINAL SINGLE POINT ENERGY      -192.785855981114
FINAL SINGLE POINT ENERGY      -192.786236640223
FINAL SINGLE POINT ENERGY      -192.786270089810
FINAL SINGLE POINT ENERGY      -192.786331576894
FINAL SINGLE POINT ENERGY      -192.786357411064
FINAL SINGLE POINT ENERGY      -192.786398589234
FINAL SINGLE POINT ENERGY      -192.786392564939
FINAL SINGLE POINT ENERGY      -192.786402808756
FINAL SINGLE POINT ENERGY      -192.786405564836
FINAL SINGLE POINT ENERGY      -192.786419581446
FINAL SINGLE POINT ENERGY      -192.786415060600
FINAL SINGLE POINT ENERGY      -192.786411767715
FINAL SINGLE POINT ENERGY      -192.786422127928
FINAL SINGLE POINT ENERGY      -192.786421197020
FINAL SINGLE POINT ENERGY      -192.786425493153
FINAL SINGLE POINT ENERGY      -192.786418770832
FINAL SINGLE POINT ENERGY      -192.786421168518
                    ***********************HURRAY********************

CARTESIAN COORDINATES (ANGSTROEM)
---------------------------------
  C     -2.089226   -1.629199   -0.035333
  C     -0.801175   -0.841232   -0.092927
  H     -2.944392   -0.948403   -0.129040
  H     -2.159826   -2.190815    0.909820
  H     -2.117809   -2.371615   -0.849208
  C      0.477105   -1.628411    0.079255
  H      0.500731   -2.101760    1.074233
  H      1.340711   -0.960576   -0.029411
  H      0.537441   -2.441890   -0.661145
  O     -0.793692    0.353191   -0.266244

 Multiplicity           Mult            ....    1
 Number of Electrons    NEL             ....   32
 Basis Dimension        Dim             ....   86

ORBITAL ENERGIES
----------------

  NO   OCC          E(Eh)            E(eV)
   0   2.0000     -19.195994      -522.3495
   1   2.0000     -10.320618      -280.8383
   2   2.0000     -10.239402      -278.6283
   3   2.0000     -10.239386      -278.6278
   4   2.0000      -1.059065       -28.8186
   5   2.0000      -0.785632       -21.3781
   6   2.0000      -0.724827       -19.7235
   7   2.0000      -0.542632       -14.7658
   8   2.0000      -0.477942       -13.0055
   9   2.0000      -0.475212       -12.9312
  10   2.0000      -0.463889       -12.6231
  11   2.0000      -0.414534       -11.2800
  12   2.0000      -0.408457       -11.1147
  13   2.0000      -0.390170       -10.6171
  14   2.0000      -0.363950        -9.9036
  15   2.0000      -0.260444        -7.0870
  16   0.0000      -0.006642        -0.1807
  17   0.0000       0.060946         1.6584
  18   0.0000       0.118339         3.2202
  19   0.0000       0.123962         3.3732
  20   0.0000       0.131114         3.5678

MULLIKEN ATOMIC CHARGES
-----------------------
   0 C :   -0.072240
   1 C :   -0.015541
   2 H :    0.065489
   3 H :    0.061028
   4 H :    0.063769
   5 C :   -0.072345
   6 H :    0.064062
   7 H :    0.065547
   8 H :    0.060675
   9 O :   -0.220442
Sum of atomic charges:   -0.0000000

LOEWDIN ATOMIC CHARGES
----------------------
   0 C :   -0.097936
   1 C :    0.073147
   2 H :    0.042907
   3 H :    0.045828
   4 H :    0.047767
   5 C :   -0.097962
   6 H :    0.047965
   7 H :    0.042930
   8 H :    0.045609
   9 O :   -0.150253

  Mayer bond orders larger than 0.100000
B(  0-C ,  1-C ) :   1.0005 B(  0-C ,  2-H ) :   0.9600 B(  0-C ,  3-H ) :   0.9542
B(  0-C ,  4-H ) :   0.9518 B(  1-C ,  5-C ) :   1.0004 B(  1-C ,  9-O ) :   2.1513
B(  5-C ,  6-H ) :   0.9518 B(  5-C ,  7-H ) :   0.9600 B(  5-C ,  8-H ) :   0.9542

FINAL SINGLE POINT ENERGY      -192.786421230435

DIPOLE MOMENT
-------------

Method             : SCF
Type of density    : Electron Density
Multiplicity       :   1
Irrep              :   0
Energy             :  -192.7864212304347973 Eh
Basis              : AO
                                X                 Y                 Z
Electronic contribution:      0.023614399       3.902663805      -0.569635495
Nuclear contribution   :     -0.030446215      -5.015031181       0.732065424
                        -----------------------------------------
Total Dipole Moment    :     -0.006831816      -1.112367376       0.162429929
                        -----------------------------------------
Magnitude (a.u.)       :      1.124184742
Magnitude (Debye)      :      2.857450529

VIBRATIONAL FREQUENCIES
-----------------------

Scaling factor for frequencies =  1.000000000  (already applied!)

     0:       0.00 cm**-1
     1:       0.00 cm**-1
     2:       0.00 cm**-1
     3:       0.00 cm**-1
     4:       0.00 cm**-1
     5:       0.00 cm**-1
     6:      30.31 cm**-1
     7:     133.99 cm**-1
     8:     381.80 cm**-1
     9:     489.91 cm**-1
    10:     541.70 cm**-1
    11:     811.80 cm**-1
    12:     860.01 cm**-1
    13:     883.37 cm**-1
    14:    1068.62 cm**-1
    15:    1104.60 cm**-1
    16:    1237.81 cm**-1
    17:    1356.36 cm**-1
    18:    1380.92 cm**-1
    19:    1423.66 cm**-1
    20:    1434.46 cm**-1
    21:    1436.59 cm**-1
    22:    1457.69 cm**-1
    23:    1872.89 cm**-1
    24:    3055.90 cm**-1
    25:    3061.13 cm**-1
    26:    3143.49 cm**-1
    27:    3148.97 cm**-1
    28:    3197.54 cm**-1
    29:    3198.03 cm**-1

IR SPECTRUM
-----------

 Mode   freq       eps      Int      T**2         TX        TY        TZ
       cm**-1   L/(mol*cm) km/mol    a.u.
----------------------------------------------------------------------------
  6:     30.31   0.000001    0.00  0.000010  ( 0.000257  0.003139 -0.000471)
  7:    133.99   0.000052    0.26  0.000120  (-0.001891 -0.001802 -0.010651)
  8:    381.80   0.000247    1.25  0.000202  (-0.000097 -0.014068  0.002032)
  9:    489.91   0.000022    0.11  0.000014  (-0.001178 -0.000493 -0.003496)
 10:    541.70   0.003002   15.17  0.001729  (-0.041555  0.000033 -0.001584)
 11:    811.80   0.000222    1.12  0.000085  (-0.000036 -0.009128  0.001359)
 12:    860.01   0.000001    0.01  0.000000  (-0.000266  0.000607 -0.000158)
 13:    883.37   0.000689    3.48  0.000244  (-0.015535 -0.000118 -0.001493)
 14:   1068.62   0.000018    0.09  0.000005  ( 0.000029  0.002279 -0.000268)
 15:   1104.60   0.001162    5.87  0.000328  ( 0.000311  0.002509  0.017940)
 16:   1237.81   0.009324   47.12  0.002351  (-0.048426 -0.000013 -0.002371)
 17:   1356.36   0.004163   21.04  0.000958  ( 0.000482  0.030606 -0.004576)
 18:   1380.92   0.021256  107.42  0.004804  (-0.069126 -0.000242 -0.005009)
 19:   1423.66   0.000159    0.80  0.000035  ( 0.005861 -0.000358 -0.000565)
 20:   1434.46   0.002924   14.78  0.000636  ( 0.000018  0.024954 -0.003667)
 21:   1436.59   0.001840    9.30  0.000400  (-0.000346 -0.019777  0.002901)
 22:   1457.69   0.004865   24.59  0.001042  ( 0.003352 -0.004711 -0.031750)
 23:   1872.89   0.036246  183.17  0.006039  ( 0.000480  0.076900 -0.011201)
 24:   3055.90   0.000121    0.61  0.000012  ( 0.003506  0.000022  0.000167)
 25:   3061.13   0.000529    2.67  0.000054  ( 0.000061  0.007258 -0.001120)
 26:   3143.49   0.000014    0.07  0.000001  ( 0.000082 -0.001192 -0.000045)
 27:   3148.97   0.001516    7.66  0.000150  (-0.001065  0.001859  0.012069)
 28:   3197.54   0.000843    4.26  0.000082  ( 0.008916  0.001640  0.000232)
 29:   3198.03   0.000454    2.29  0.000044  ( 0.002280 -0.006166  0.001018)

--------------------------
THERMOCHEMISTRY AT 298.15K
--------------------------

Temperature         ...   298.15 K
Pressure            ...     1.00 atm
Total Mass          ...    58.08 AMU
Quasi RRHO          ...     True
Cut-Off Frequency   ...     1.00 cm^-1

Throughout the following assumptions are being made:
  (1) The electronic state is orbitally nondegenerate
  (2) There are no thermally accessible electronically excited states
  (3) Hindered rotations indicated by low frequency modes are not
      treated as such but are treated as vibrations and this may
      cause some error
  (4) All equations used are the standard statistical mechanics
      equations for an ideal gas
  (5) All vibrations are strictly harmonic

freq.      30.31  E(vib)   ...       0.55
freq.     133.99  E(vib)   ...       0.42
freq.     381.80  E(vib)   ...       0.21
freq.     489.91  E(vib)   ...       0.15
freq.     541.70  E(vib)   ...       0.12
freq.     811.80  E(vib)   ...       0.05
freq.     860.01  E(vib)   ...       0.04
freq.     883.37  E(vib)   ...       0.04
freq.    1068.62  E(vib)   ...       0.02
freq.    1104.60  E(vib)   ...       0.02
freq.    1237.81  E(vib)   ...       0.01
freq.    1356.36  E(vib)   ...       0.01
freq.    1380.92  E(vib)   ...       0.01
freq.    1423.66  E(vib)   ...       0.00
freq.    1434.46  E(vib)   ...       0.00
freq.    1436.59  E(vib)   ...       0.00
freq.    1457.69  E(vib)   ...       0.00
freq.    1872.89  E(vib)   ...       0.00
freq.    3055.90  E(vib)   ...       0.00
freq.    3061.13  E(vib)   ...       0.00
freq.    3143.49  E(vib)   ...       0.00
freq.    3148.97  E(vib)   ...       0.00
freq.    3197.54  E(vib)   ...       0.00
freq.    3198.03  E(vib)   ...       0.00

------------
INNER ENERGY
------------

The inner energy is: U= E(el) + E(ZPE) + E(vib) + E(rot) + E(trans)
    E(el)   - is the total energy from the electronic structure calculation
              = E(kin-el) + E(nuc-el) + E(el-el) + E(nuc-nuc)
    E(ZPE)  - the the zero temperature vibrational energy from the frequency calculation
    E(vib)  - the the finite temperature correction to E(ZPE) due to population
              of excited vibrational states
    E(rot)  - is the rotational thermal energy
    E(trans)- is the translational thermal energy

Summary of contributions to the inner energy U:
Electronic energy                ...   -192.78642123 Eh
Zero point energy                ...      0.08363510 Eh      52.48 kcal/mol
Thermal vibrational correction   ...      0.00260858 Eh       1.64 kcal/mol
Thermal rotational correction    ...      0.00141627 Eh       0.89 kcal/mol
Thermal translational correction ...      0.00141627 Eh       0.89 kcal/mol
-----------------------------------------------------------------------
Total thermal energy                   -192.69734501 Eh

Summary of corrections to the electronic energy:
(perhaps to be used in another calculation)
Total thermal correction                  0.00544112 Eh       3.41 kcal/mol
Non-thermal (ZPE) correction              0.08363510 Eh      52.48 kcal/mol
-----------------------------------------------------------------------
Total correction                          0.08907622 Eh      55.90 kcal/mol

--------
ENTHALPY
--------

The enthalpy is H = U + kB*T
                kB is Boltzmann's constant
Total thermal energy              ...   -192.69734501 Eh
Thermal Enthalpy correction       ...      0.00094421 Eh       0.59 kcal/mol
-----------------------------------------------------------------------
Total Enthalpy                    ...   -192.69640080 Eh

Note: Only C1 symmetry has been detected, increase convergence thresholds
      if your molecule has a higher symmetry. Symmetry factor of 1.0 is
      used for the rotational entropy correction.

Note: Rotational entropy computed according to Herzberg
Infrared and Raman Spectra, Chapter V,1, Van Nostrand Reinhold, 1945
Point Group:  C1, Symmetry Number:   1
Rotational constants in cm-1:     0.339874     0.284803     0.164491

Vibrational entropy computed according to the QRRHO of S. Grimme
Chem.Eur.J. 2012 18 9955 using a reference frequency of 100.0 cm-1

-------
ENTROPY
-------

The entropy contributions are T*S = T*(S(el)+S(vib)+S(rot)+S(trans))
     S(el)   - electronic entropy
     S(vib)  - vibrational entropy
     S(rot)  - rotational entropy
     S(trans)- translational entropy
The entropies will be listed as multiplied by the temperature to get
units of energy

Electronic entropy                ...      0.00000000 Eh      0.00 kcal/mol
Vibrational entropy               ...      0.00471539 Eh      2.96 kcal/mol
Rotational entropy                ...      0.01146528 Eh      7.19 kcal/mol
Translational entropy             ...      0.01810171 Eh     11.36 kcal/mol
-----------------------------------------------------------------------
Final entropy term                ...      0.03428238 Eh     21.51 kcal/mol

In case the symmetry of your molecule has not been determined correctly
or in case you have a reason to use a different symmetry number we print
out the resulting rotational entropy values for sn=1,12:

 non-linear molecules -----------------------------------
|  sn= 1 | S(rot)=       0.01146528 Eh      7.19 kcal/mol|
|  sn= 2 | S(rot)=       0.01081082 Eh      6.78 kcal/mol|
|  sn= 3 | S(rot)=       0.01042799 Eh      6.54 kcal/mol|
|  sn= 4 | S(rot)=       0.01015637 Eh      6.37 kcal/mol|
|  sn= 5 | S(rot)=       0.00994568 Eh      6.24 kcal/mol|
|  sn= 6 | S(rot)=       0.00977354 Eh      6.13 kcal/mol|
|  sn= 7 | S(rot)=       0.00962799 Eh      6.04 kcal/mol|
|  sn= 8 | S(rot)=       0.00950191 Eh      5.96 kcal/mol|
|  sn= 9 | S(rot)=       0.00939070 Eh      5.89 kcal/mol|
|  sn=10 | S(rot)=       0.00929122 Eh      5.83 kcal/mol|
|  sn=11 | S(rot)=       0.00920123 Eh      5.77 kcal/mol|
|  sn=12 | S(rot)=       0.00911908 Eh      5.72 kcal/mol|
 linear molecules ---------------------------------------
|  Dinfh | S(rot)=       0.00702996 Eh      4.41 kcal/mol|
|  Cinfv | S(rot)=       0.00768441 Eh      4.82 kcal/mol|
 --------------------------------------------------------

-------------------
GIBBS FREE ENERGY
-------------------

The Gibbs free energy is G = H - T*S

Total enthalpy                    ...   -192.69640080 Eh
Total entropy correction          ...     -0.03428238 Eh    -21.51 kcal/mol
-----------------------------------------------------------------------
Final Gibbs free energy         ...   -192.73068318 Eh

For completeness - the Gibbs free energy minus the electronic energy
G-E(el)                           ...      0.05573805 Eh     34.98 kcal/mol

                             ****ORCA TERMINATED NORMALLY****
TOTAL RUN TIME: 0 days 0 hours 3 minutes 45 seconds 490 msec
