                         Program Version 4.2.1 -  RELEASE  -
|  1> !B3LYP def2-SVP OPT FREQ CPCM(WATER)
|  2> * xyz 1 1
|  3>    C        1.33878        0.51508       -0.01708
|  4>    C        1.24526       -0.81240        0.09268
|  5>    N       -0.02415       -1.41966        0.11620
|  6>    C       -1.17237       -0.61743        0.00888
|  7>    N       -1.05625        0.71979       -0.10636
|  8>    C        0.13881        1.36406       -0.11760
|  9>    O       -2.19305       -1.27075        0.03788
| 10>    O        0.23534        2.57757       -0.20466
| 11>    H        2.15069       -1.41636        0.16463
| 12>    H       -0.21763       -1.98249        0.95584
| 13>    H       -1.89431        1.28315       -0.17534
| 14>    H        2.29444        1.03083       -0.03758
| 15>    H       -0.17622       -2.13392       -0.60893
| 16> *
| 17>
| 18>
| 19>
| 20>                          ****END OF INPUT****
 Total Charge           Charge          ....    1
 Multiplicity           Mult            ....    1
 Number of Electrons    NEL             ....   58
FINAL SINGLE POINT ENERGY      -414.696243516391
FINAL SINGLE POINT ENERGY      -414.710424197326
FINAL SINGLE POINT ENERGY      -414.714185534533
FINAL SINGLE POINT ENERGY      -414.714860878720
FINAL SINGLE POINT ENERGY      -414.714745062879
FINAL SINGLE POINT ENERGY      -414.714747791541
FINAL SINGLE POINT ENERGY      -414.714750118878
                    ***********************HURRAY********************

CARTESIAN COORDINATES (ANGSTROEM)
---------------------------------
  C      1.365855    0.533997   -0.017795
  C      1.281863   -0.788655    0.093257
  N     -0.021011   -1.450395    0.118437
  C     -1.289878   -0.622329    0.007801
  N     -1.064188    0.706802   -0.097341
  C      0.168081    1.391376   -0.119566
  O     -2.334795   -1.198357    0.024143
  O      0.193513    2.595440   -0.217241
  H      2.123010   -1.478478    0.173803
  H     -0.114939   -2.012404    0.984263
  H     -1.901448    1.289086   -0.172072
  H      2.334895    1.034094   -0.036100
  H     -0.071619   -2.162707   -0.633029

 Multiplicity           Mult            ....    1
 Number of Electrons    NEL             ....   58
 Basis Dimension        Dim             ....  137

ORBITAL ENERGIES
----------------

  NO   OCC          E(Eh)            E(eV)
   0   2.0000     -19.178647      -521.8775
   1   2.0000     -19.158828      -521.3382
   2   2.0000     -14.487708      -394.2306
   3   2.0000     -14.418980      -392.3604
   4   2.0000     -10.392167      -282.7852
   5   2.0000     -10.346689      -281.5477
   6   2.0000     -10.290327      -280.0140
   7   2.0000     -10.243530      -278.7406
   8   2.0000      -1.124572       -30.6012
   9   2.0000      -1.082873       -29.4665
  10   2.0000      -1.029133       -28.0041
  11   2.0000      -0.971127       -26.4257
  12   2.0000      -0.829299       -22.5664
  13   2.0000      -0.709995       -19.3199
  14   2.0000      -0.706219       -19.2172
  15   2.0000      -0.626896       -17.0587
  16   2.0000      -0.613736       -16.7006
  17   2.0000      -0.597420       -16.2566
  18   2.0000      -0.542281       -14.7562
  19   2.0000      -0.511805       -13.9269
  20   2.0000      -0.493114       -13.4183
  21   2.0000      -0.488930       -13.3045
  22   2.0000      -0.466457       -12.6929
  23   2.0000      -0.448805       -12.2126
  24   2.0000      -0.443247       -12.0614
  25   2.0000      -0.349861        -9.5202
  26   2.0000      -0.332347        -9.0436
  27   2.0000      -0.328717        -8.9449
  28   2.0000      -0.313038        -8.5182
  29   0.0000      -0.095671        -2.6033
  30   0.0000      -0.041246        -1.1224
  31   0.0000       0.028580         0.7777
  32   0.0000       0.056258         1.5309
  33   0.0000       0.069111         1.8806

MULLIKEN ATOMIC CHARGES
-----------------------
   0 C :   -0.044636
   1 C :    0.155736
   2 N :   -0.065384
   3 C :    0.246385
   4 N :   -0.093729
   5 C :    0.213539
   6 O :   -0.162244
   7 O :   -0.197466
   8 H :    0.113609
   9 H :    0.272209
  10 H :    0.210299
  11 H :    0.078865
  12 H :    0.272817
Sum of atomic charges:    1.0000000

LOEWDIN ATOMIC CHARGES
----------------------
   0 C :   -0.019527
   1 C :    0.108115
   2 N :    0.234186
   3 C :    0.149240
   4 N :    0.043488
   5 C :    0.108979
   6 O :   -0.135073
   7 O :   -0.161051
   8 H :    0.077203
   9 H :    0.186623
  10 H :    0.142370
  11 H :    0.078822
  12 H :    0.186626

  Mayer bond orders larger than 0.100000
B(  0-C ,  1-C ) :   1.8347 B(  0-C ,  5-C ) :   1.0033 B(  0-C , 11-H ) :   0.9686
B(  1-C ,  2-N ) :   0.9258 B(  1-C ,  8-H ) :   0.9533 B(  2-N ,  3-C ) :   0.8231
B(  2-N ,  9-H ) :   0.8745 B(  2-N , 12-H ) :   0.8741 B(  3-C ,  4-N ) :   1.2150
B(  3-C ,  6-O ) :   2.1950 B(  4-N ,  5-C ) :   1.0279 B(  4-N , 10-H ) :   0.8777
B(  5-C ,  7-O ) :   2.1359

FINAL SINGLE POINT ENERGY      -414.714747865897

DIPOLE MOMENT
-------------
                                X             Y             Z
Electronic contribution:     -1.95252       0.56755      -0.10127
Nuclear contribution   :      3.38819      -3.72534       0.41630
                        -----------------------------------------
Total Dipole Moment    :      1.43567      -3.15779       0.31503
                        -----------------------------------------
Magnitude (a.u.)       :      3.48311
Magnitude (Debye)      :      8.85335

VIBRATIONAL FREQUENCIES
-----------------------

Scaling factor for frequencies =  1.000000000  (already applied!)

   0:         0.00 cm**-1
   1:         0.00 cm**-1
   2:         0.00 cm**-1
   3:         0.00 cm**-1
   4:         0.00 cm**-1
   5:         0.00 cm**-1
   6:      -159.85 cm**-1 ***imaginary mode***
   7:       134.53 cm**-1
   8:       285.36 cm**-1
   9:       392.18 cm**-1
  10:       475.63 cm**-1
  11:       511.31 cm**-1
  12:       531.20 cm**-1
  13:       542.47 cm**-1
  14:       665.18 cm**-1
  15:       670.78 cm**-1
  16:       690.46 cm**-1
  17:       807.50 cm**-1
  18:       869.42 cm**-1
  19:       921.11 cm**-1
  20:       949.71 cm**-1
  21:       979.94 cm**-1
  22:       982.48 cm**-1
  23:      1157.39 cm**-1
  24:      1247.18 cm**-1
  25:      1269.49 cm**-1
  26:      1330.40 cm**-1
  27:      1365.35 cm**-1
  28:      1384.62 cm**-1
  29:      1443.30 cm**-1
  30:      1477.58 cm**-1
  31:      1741.68 cm**-1
  32:      1817.44 cm**-1
  33:      1903.70 cm**-1
  34:      3235.24 cm**-1
  35:      3249.21 cm**-1
  36:      3339.25 cm**-1
  37:      3366.01 cm**-1
  38:      3536.23 cm**-1

IR SPECTRUM
-----------

 Mode    freq (cm**-1)   T**2         TX         TY         TZ
-------------------------------------------------------------------
   7:       134.53    9.789816  ( -0.105727   0.238463   3.117976)
   8:       285.36    1.843637  ( -0.035811   0.127246   1.351356)
   9:       392.18   59.025434  (  5.985496  -4.777058   0.615624)
  10:       475.63   42.357071  (  2.627909   5.946439  -0.301698)
  11:       511.31   48.636250  (  0.230266  -0.501547  -6.952099)
  12:       531.20   30.106387  ( -4.761940  -2.723388   0.116086)
  13:       542.47    8.360150  ( -0.859775   2.723082  -0.453608)
  14:       665.18    1.004596  (  0.105321   0.004665   0.996735)
  15:       670.78  117.049635  ( -0.307156   0.867735  10.779718)
  16:       690.46   12.936421  (  1.429553  -3.291832   0.237998)
  17:       807.50  116.560263  ( -0.227200   0.850437  10.760362)
  18:       869.42   16.522527  ( -3.086571   2.631204  -0.269017)
  19:       921.11    0.492638  (  0.096736  -0.065254  -0.692114)
  20:       949.71    2.746848  ( -0.684520  -1.507686   0.071853)
  21:       979.94    1.038870  ( -0.514510   0.382848  -0.792198)
  22:       982.48   17.637448  (  3.276518  -2.609619   0.302927)
  23:      1157.39   66.456410  ( -4.032863  -7.062366   0.561622)
  24:      1247.18  153.037641  (  3.509411  11.827733  -0.909071)
  25:      1269.49    1.768567  ( -0.127099   0.284144   1.292933)
  26:      1330.40  463.578038  ( 19.721394  -8.533318   1.351716)
  27:      1365.35   94.440647  ( -9.103850  -3.399380  -0.069142)
  28:      1384.62   46.268880  (  5.899965   3.378957  -0.204800)
  29:      1443.30  134.019457  ( -7.218052  -9.034919   0.537986)
  30:      1477.58  116.749064  (  0.999063  10.714636  -0.973400)
  31:      1741.68   24.884228  ( -4.982575   0.145257  -0.192540)
  32:      1817.44  981.991252  ( -7.699041 -30.291239   2.270878)
  33:      1903.70  728.365775  (-23.262333 -13.676721   0.420651)
  34:      3235.24   19.806462  ( -1.512273  -4.173108   0.323514)
  35:      3249.21   23.332236  (  4.493981  -1.745168   0.301259)
  36:      3339.25  300.288215  ( -0.266945  17.276667  -1.316708)
  37:      3366.01  247.125702  (  0.393772  -1.171353 -15.671585)
  38:      3536.23  210.227388  ( 11.130004  -9.226352   1.106725)

--------------------------
THERMOCHEMISTRY AT 298.15K
--------------------------

Temperature         ... 298.15 K
Pressure            ... 1.00 atm
Total Mass          ... 113.10 AMU

Throughout the following assumptions are being made:
  (1) The electronic state is orbitally nondegenerate
  (2) There are no thermally accessible electronically excited states
  (3) Hindered rotations indicated by low frequency modes are not
      treated as such but are treated as vibrations and this may
      cause some error
  (4) All equations used are the standard statistical mechanics
      equations for an ideal gas
  (5) All vibrations are strictly harmonic

freq.     134.53  E(vib)   ...       0.42
freq.     285.36  E(vib)   ...       0.28
freq.     392.18  E(vib)   ...       0.20
freq.     475.63  E(vib)   ...       0.15
freq.     511.31  E(vib)   ...       0.14
freq.     531.20  E(vib)   ...       0.13
freq.     542.47  E(vib)   ...       0.12
freq.     665.18  E(vib)   ...       0.08
freq.     670.78  E(vib)   ...       0.08
freq.     690.46  E(vib)   ...       0.07
freq.     807.50  E(vib)   ...       0.05
freq.     869.42  E(vib)   ...       0.04
freq.     921.11  E(vib)   ...       0.03
freq.     949.71  E(vib)   ...       0.03
freq.     979.94  E(vib)   ...       0.02
freq.     982.48  E(vib)   ...       0.02
freq.    1157.39  E(vib)   ...       0.01
freq.    1247.18  E(vib)   ...       0.01
freq.    1269.49  E(vib)   ...       0.01
freq.    1330.40  E(vib)   ...       0.01
freq.    1365.35  E(vib)   ...       0.01
freq.    1384.62  E(vib)   ...       0.00
freq.    1443.30  E(vib)   ...       0.00
freq.    1477.58  E(vib)   ...       0.00
freq.    1741.68  E(vib)   ...       0.00
freq.    1817.44  E(vib)   ...       0.00
freq.    1903.70  E(vib)   ...       0.00
freq.    3235.24  E(vib)   ...       0.00
freq.    3249.21  E(vib)   ...       0.00
freq.    3339.25  E(vib)   ...       0.00
freq.    3366.01  E(vib)   ...       0.00
freq.    3536.23  E(vib)   ...       0.00

------------
INNER ENERGY
------------

The inner energy is: U= E(el) + E(ZPE) + E(vib) + E(rot) + E(trans)
    E(el)   - is the total energy from the electronic structure calculation
              = E(kin-el) + E(nuc-el) + E(el-el) + E(nuc-nuc)
    E(ZPE)  - the the zero temperature vibrational energy from the frequency calculation
    E(vib)  - the the finite temperature correction to E(ZPE) due to population
              of excited vibrational states
    E(rot)  - is the rotational thermal energy
    E(trans)- is the translational thermal energy

Summary of contributions to the inner energy U:
Electronic energy                ...   -414.71474787 Eh
Zero point energy                ...      0.09858392 Eh      61.86 kcal/mol
Thermal vibrational correction   ...      0.00304980 Eh       1.91 kcal/mol
Thermal rotational correction    ...      0.00141627 Eh       0.89 kcal/mol
Thermal translational correction ...      0.00141627 Eh       0.89 kcal/mol
-----------------------------------------------------------------------
Total thermal energy                   -414.61028160 Eh

Summary of corrections to the electronic energy:
(perhaps to be used in another calculation)
Total thermal correction                  0.00588234 Eh       3.69 kcal/mol
Non-thermal (ZPE) correction              0.09858392 Eh      61.86 kcal/mol
-----------------------------------------------------------------------
Total correction                          0.10446626 Eh      65.55 kcal/mol

--------
ENTHALPY
--------

The enthalpy is H = U + kB*T
                kB is Boltzmann's constant
Total free energy                 ...   -414.61028160 Eh
Thermal Enthalpy correction       ...      0.00094421 Eh       0.59 kcal/mol
-----------------------------------------------------------------------
Total Enthalpy                    ...   -414.60933740 Eh

Note: Only C1 symmetry has been detected, increase convergence thresholds
      if your molecule has a higher symmetry. Symmetry factor of 1.0 is
      used for the rotational entropy correction.

Note: Rotational entropy computed according to Herzberg
Infrared and Raman Spectra, Chapter V,1, Van Nostrand Reinhold, 1945
Point Group:  C1, Symmetry Number:   1
Rotational constants in cm-1:     0.120560     0.066204     0.043027

Vibrational entropy computed according to the QRRHO of S. Grimme
Chem.Eur.J. 2012 18 9955

-------
ENTROPY
-------

The entropy contributions are T*S = T*(S(el)+S(vib)+S(rot)+S(trans))
     S(el)   - electronic entropy
     S(vib)  - vibrational entropy
     S(rot)  - rotational entropy
     S(trans)- translational entropy
The entropies will be listed as mutliplied by the temperature to get
units of energy

Electronic entropy                ...      0.00000000 Eh      0.00 kcal/mol
Vibrational entropy               ...      0.00467390 Eh      2.93 kcal/mol
Rotational entropy                ...      0.01327647 Eh      8.33 kcal/mol
Translational entropy             ...      0.01904554 Eh     11.95 kcal/mol
-----------------------------------------------------------------------
Final entropy term                ...      0.03699591 Eh     23.22 kcal/mol

In case the symmetry of your molecule has not been determined correctly
or in case you have a reason to use a different symmetry number we print
out the resulting rotational entropy values for sn=1,12 :
 --------------------------------------------------------
|  sn= 1 | S(rot)=       0.01327647 Eh      8.33 kcal/mol|
|  sn= 2 | S(rot)=       0.01262201 Eh      7.92 kcal/mol|
|  sn= 3 | S(rot)=       0.01223918 Eh      7.68 kcal/mol|
|  sn= 4 | S(rot)=       0.01196756 Eh      7.51 kcal/mol|
|  sn= 5 | S(rot)=       0.01175687 Eh      7.38 kcal/mol|
|  sn= 6 | S(rot)=       0.01158472 Eh      7.27 kcal/mol|
|  sn= 7 | S(rot)=       0.01143918 Eh      7.18 kcal/mol|
|  sn= 8 | S(rot)=       0.01131310 Eh      7.10 kcal/mol|
|  sn= 9 | S(rot)=       0.01120189 Eh      7.03 kcal/mol|
|  sn=10 | S(rot)=       0.01110241 Eh      6.97 kcal/mol|
|  sn=11 | S(rot)=       0.01101242 Eh      6.91 kcal/mol|
|  sn=12 | S(rot)=       0.01093027 Eh      6.86 kcal/mol|
 --------------------------------------------------------

-------------------
GIBBS FREE ENERGY
-------------------

The Gibbs free energy is G = H - T*S

Total enthalpy                    ...   -414.60933740 Eh
Total entropy correction          ...     -0.03699591 Eh    -23.22 kcal/mol
-----------------------------------------------------------------------
Final Gibbs free energy         ...   -414.64633330 Eh

For completeness - the Gibbs free energy minus the electronic energy
G-E(el)                           ...      0.06841456 Eh     42.93 kcal/mol

                             ****ORCA TERMINATED NORMALLY****
TOTAL RUN TIME: 0 days 0 hours 11 minutes 36 seconds 433 msec
